----- GAMESS execution script 'rungms' -----
This job is running on host 40f085602989
under operating system Linux at Mon Nov 16 06:51:10 UTC 2020
Available scratch disk space (Kbyte units) at beginning of the job is
Filesystem     1K-blocks     Used Available Use% Mounted on
overlay         65789484 21622396  40795468  35% /
GAMESS temporary binary files will be written to /tmp
GAMESS supplementary output files will be written to /home/gamess/.gamess
Copying input file ./ne+-guga.inp to your run's scratch directory...

 Distributed Data Interface kickoff program.
 Initiating 1 compute processes on 1 nodes to run the following command:
 /gamess/gamess.00.x ne+-guga 

          *******************************************************
          *                                                     *
          *          GAMESS VERSION = 30 SEP 2020 (R2)          *
          *                                                     *
          *              doi.org/10.1063/5.0005188              *
          *                                                     *
          **************** 64 BIT LINUX VERSION *****************

  GAMESS HAS BEEN MADE POSSIBLE WITH IMPORTANT CONTRIBUTIONS FROM
  THE FOLLOWING INDIVIDUALS (IN ALPHABETICAL ORDER):

     IVANA ADAMOVIC, CHRISTINE AIKENS, TOMOKO AKAMA,
     YURI ALEXEEV, YURIKO AOKI, POOJA ARORA, TOSHIO ASADA,
     ANDREY ASADCHEV, KIM K. BALDRIDGE, PRADIPTA BANDYOPADHYAY,
     MARIA BARYSZ, ROB BELL, JONATHAN BENTZ, COLLEEN BERTONI,
     JERRY A. BOATZ, BRETT BODE, KURT BRORSEN, KURT R. BRORSEN,
     LAIMUTIS BYTAUTAS, CALEB CARLIN, LAURA CARRINGTON,
     GALINA CHABAN, BENOIT CHAMPAGNE, WEI CHEN, MAHITO CHIBA,
     DAN CHIPMAN, CHEOL HO CHOI, TANNER CULPITT,
     DIPAYAN DATTA, PAUL DAY, ALBERT DEFUSCO,
     NUWAN DESILVA, J. EMILIANO DEUSTUA,
     TIM DUDLEY, MICHEL DUPUIS, STEVEN T. ELBERT,
     DMITRI FEDOROV, ALEX FINDLATER, GRAHAM FLETCHER,
     MARK FREITAG, CHRISTIAN FRIEDL, DAVID GARMER,
     IGOR S. GERASIMOV, KURT GLAESEMANN, MARK S. GORDON,
     JEFFREY GOUR, FENG LONG GU, EMILIE B. GUIDEZ,
     ANASTASIA GUNINA, SHARON HAMMES-SCHIFFER, MASATAKE HARUTA,
     KIMIHIKO HIRAO, YASUHIRO IKABATA, TZVETELIN IORDANOV,
     STEPHAN IRLE, KAZUYA ISHIMURA, JOE IVANIC, FRANK JENSEN,
     JAN H. JENSEN, VISVALDAS KAIRYS, MUNEAKI KAMIYA,
     MICHIO KATOUDA, NAOAKI KAWAKAMI, DAN KEMP, BERNARD KIRTMAN,
     KAZUO KITAURA, MARIUSZ KLOBUKOWSKI, MASATO KOBAYASHI,
     PRAKASHAN KORAMBATH, JACEK KORCHOWIEC, SHIRO KOSEKI,
     KAROL KOWALSKI, JIMMY KROMANN, STANISLAW KUCHARSKI,
     HENRY KURTZ, SAROM SOK LEANG, HUI LI, SHUHUA LI, WEI LI,
     JESSE LUTZ, ALEKSANDR O. LYKHIN, MARCIN MAKOWSKI,
     JOANI MATO, NIKITA MATSUNAGA, BENEDETTA MENNUCCI,
     GRANT MERRILL, NORIYUKI MINEZAWA, VLADIMIR MIRONOV,
     EISAKU MIYOSHI, JOHN A. MONTGOMERY JR., HIROTOSHI MORI,
     JONATHAN MULLIN, MONIKA MUSIAL, SHIGERU NAGASE,
     TAKESHI NAGATA, HIROMI NAKAI, TAKAHITO NAKAJIMA,
     YUYA NAKAJIMA, HARUYUKI NAKANO, HIROYA NAKATA, SEAN NEDD,
     HEATHER NETZLOFF, KIET A. NGUYEN, YOSHIO NISHIMOTO,
     BOSILJKA NJEGIC, RYAN OLSON, MIKE PAK, ROBERTO PEVERATI,
     BUU PHAM, PIOTR PIECUCH, ANNA POMOGAEVA, DAVID POOLE,
     SPENCER PRUITT, OLIVIER QUINET, LUKE ROSKOP,
     KLAUS RUEDENBERG, ANDREW SAND, TOSAPORN SATTASATHUCHANA,
     NOZOMI SAWADA, MICHAEL W. SCHMIDT, PATRICK E. SCHNEIDER,
     JUNJI SEINO, PRACHI SHARMA, JUN SHEN, JIM SHOEMAKER,
     YINAN SHU, DEJUN SI, JONATHAN SKONE, LYUDMILA SLIPCHENKO,
     TONY SMITH, JIE SONG, MARK SPACKMAN, CASPER STEINMANN,
     WALT STEVENS, PEIFENG SU, SHUJUN SU, CHET SWALINA,
     TETSUYA TAKETSUGU, ZHEN TAO, NANDUN THELLAMUREGE
     SEIKEN TOKURA, JACOPO TOMASI, TSUGUKI TOUMA, TAKAO TSUNEDA,
     HIROAKI UMEDA, JORGE LUIS GALVEZ VALLEJO, YALI WANG,
     SIMON WEBB, AARON WEST, THERESA L. WINDUS, MARTA WLOCH,
     PENG XU, KIYOSHI YAGI, SUSUMU YANAGISAWA, YANG YANG,
     SOOHAENG YOO, TAKESHI YOSHIKAWA, FEDERICO ZAHARIEV,
     TOBY ZENG

  WHO ARE SUPPORTED BY THEIR INSTITUTION/UNIVERSITY/COMPANY/GROUP
  (IN ALPHABETICAL ORDER):

     EP ANALYTICS, FACULTES UNIVERSITAIRES NOTRE-DAME DE LA PAIX,
     INSTITUTE FOR MOLECULAR SCIENCE, IOWA STATE UNIVERSITY,
     JACKSON STATE UNIVERSITY, JOHANNES KEPLER UNIVERSITY LINZ,
     KYUSHU UNIVERSITY, MICHIGAN STATE UNIVERSITY,
     MIE UNIVERSITY, MOSCOW STATE UNIVERSITY,
     N. COPERNICUS UNIVERSITY, NAGOYA UNIVERSITY,
     NANJING UNIVERSITY, NAT. INST. OF ADVANCED INDUSTRIAL
     SCIENCE AND TECHNOLOGY, NATIONAL INST. OF STANDARDS AND
     TECHNOLOGY, NESMEYANOV INSTITUTE OF ORGANOELEMENT COMPOUNDS
     OF RUSSIAN ACADEMY OF SCIENCES, OSAKA PREFECTURE UNIVERSITY,
     PENNSYLVANIA STATE UNIVERSITY, TOKYO INSTITUTE OF TECHNOLOGY,
     UNIVERSITY OF AARHUS, UNIVERSITY OF ALBERTA,
     UNIVERSITY OF CALIFORNIA AT SANTA BARBARA,
     UNIVERSITY OF COPENHAGEN, UNIVERSITY OF IOWA,
     UNIVERSITY OF MEMPHIS, UNIVERSITY OF MINNESOTA,
     UNIVERSITY OF NEBRASKA, UNIVERSITY OF NEW ENGLAND,
     UNIVERSITY OF NOTRE DAME, UNIVERSITY OF PISA,
     UNIVERSITY OF SILESIA, UNIVERSITY OF TOKYO,
     UNIVERSITY OF ZURICH, WASEDA UNIVERSITY, YALE UNIVERSITY

  GAMESS SOFTWARE MANAGEMENT TEAM FOR THIS RELEASE:
     MARK S. GORDON (TEAM LEAD),
     BRETT BODE (SENIOR ADVISOR),
     GIUSEPPE BARCA,
     COLLEEN BERTONI,
     KRISTOPHER KEIPERT (ADVISOR),
     SAROM S. LEANG (DEVELOPMENT LEAD),
     BUU PHAM,
     JORGE LUIS GALVEZ VALLEJO (WEBSITE ADMINISTRATOR),
     PENG XU

 EXECUTION OF GAMESS BEGUN 06:51:33 16-NOV-2020    

            ECHO OF THE FIRST FEW INPUT CARDS -
 INPUT CARD> $CONTRL SCFTYP=NONE CITYP=GUGA RUNTYP=TRANSITN ICUT=20 ITOL=30                 
 INPUT CARD>         MULT=2 ICHARG=1 QMTTOL=1E-8                                            
 INPUT CARD>   $END                                                                         
 INPUT CARD> $SYSTEM TIMLIM=20000 MWORDS=100 MEMDDI=0 KDIAG=1                         $END  
 INPUT CARD> $SCF    CONV=1E-10 DIRSCF=.TRUE. MVOQ=+0                                 $END  
 INPUT CARD>!$GUESS  GUESS=HUCKEL                                                     $END  
 INPUT CARD> $GUESS  GUESS=MOREAD NORB=121 PURIFY=.FALSE.                             $END  
 INPUT CARD> $TRANS  CUTTRF=1E-16                                                     $END  
 INPUT CARD>!$CIINP  NPFLG(2)=2                                                       $END  
 INPUT CARD> $CIDET  GROUP=C1 PURES=.FALSE.                                                 
 INPUT CARD>         NCORE=0 NACT=5 NELS=9 NSTATE=5 CVGTOL=1E-8 PRTTOL=-1                   
 INPUT CARD>    $END                                                                        
 INPUT CARD> $TRANST OPERAT=DM NFZC=0 NOCC=5 IROOTS=5 NSTATE=5 NOSYM=-1               $END  
 INPUT CARD> $DRT1  GROUP=C1 FORS=.T. NFZC=0 NDOC=4 NALP=1                            $END  
 INPUT CARD> $DATA                                                                          
 INPUT CARD>Ne aug-cc-pVTZ + Rydberg Kaufmann SPD 1-10                                      
 INPUT CARD>DND      2                                                                      
 INPUT CARD>                                                                                
 INPUT CARD>NE         10.0      0.0000000000      0.0000000000      0.0000000000           
 INPUT CARD>   S      10                                                                    
 INPUT CARD>     1          24350.0000000000  0.00050200                                    
 INPUT CARD>     2           3650.0000000000  0.00388100                                    
 INPUT CARD>     3            829.6000000000  0.01999700                                    
 INPUT CARD>     4            234.0000000000  0.07841800                                    
 INPUT CARD>     5             75.6100000000  0.22967600                                    
 INPUT CARD>     6             26.7300000000  0.43272200                                    
 INPUT CARD>     7              9.9270000000  0.35064200                                    
 INPUT CARD>     8              2.8360000000  0.04391100                                    
 INPUT CARD>     9              1.1020000000 -0.00764500                                    
 INPUT CARD>    10              0.3782000000  0.00237500                                    
 INPUT CARD>   S      10                                                                    
 INPUT CARD>     1          24350.0000000000 -0.00011800                                    
 INPUT CARD>     2           3650.0000000000 -0.00091500                                    
 INPUT CARD>     3            829.6000000000 -0.00473700                                    
 INPUT CARD>     4            234.0000000000 -0.01923300                                    
 INPUT CARD>     5             75.6100000000 -0.06036900                                    
 INPUT CARD>     6             26.7300000000 -0.14250800                                    
 INPUT CARD>     7              9.9270000000 -0.17771000                                    
 INPUT CARD>     8              2.8360000000  0.17735200                                    
 INPUT CARD>     9              1.1020000000  0.60583600                                    
 INPUT CARD>    10              0.3782000000  0.36510900                                    
 INPUT CARD>   S       1                                                                    
 INPUT CARD>     1              2.8360000000  1.00000000                                    
 INPUT CARD>   S       1                                                                    
 INPUT CARD>     1              0.3782000000  1.00000000                                    
 INPUT CARD>   S       1                                                                    
 INPUT CARD>     1              0.1133000000  1.00000000                                    
 INPUT CARD>   P       5                                                                    
 INPUT CARD>     1             54.7000000000  0.01715100                                    
 INPUT CARD>     2             12.4300000000  0.10765600                                    
  100000000 WORDS OF MEMORY AVAILABLE


     RUN TITLE
     ---------
 Ne aug-cc-pVTZ + Rydberg Kaufmann SPD 1-10                                      

 THE POINT GROUP OF THE MOLECULE IS DND     
 THE ORDER OF THE PRINCIPAL AXIS IS     2

 ATOM      ATOMIC                      COORDINATES (BOHR)
           CHARGE         X                   Y                   Z
 NE         10.0     0.0000000000        0.0000000000        0.0000000000

          INTERNUCLEAR DISTANCES (ANGS.)
          ------------------------------

                1 NE    

   1 NE      0.0000000  

  * ... LESS THAN  3.000


     ATOMIC BASIS SET
     ----------------
 THE CONTRACTED PRIMITIVE FUNCTIONS HAVE BEEN UNNORMALIZED
 THE CONTRACTED BASIS FUNCTIONS ARE NOW NORMALIZED TO UNITY

  SHELL TYPE  PRIMITIVE        EXPONENT          CONTRACTION COEFFICIENT(S)

 NE        

      1   S       1         24350.0000000    0.000501999728
      1   S       2          3650.0000000    0.003880997898
      1   S       3           829.6000000    0.019996989167
      1   S       4           234.0000000    0.078417957520
      1   S       5            75.6100000    0.229675875583
      1   S       6            26.7300000    0.432721765592
      1   S       7             9.9270000    0.350641810055
      1   S       8             2.8360000    0.043910976213
      1   S       9             1.1020000   -0.007644995859
      1   S      10             0.3782000    0.002374998713

      2   S      11         24350.0000000   -0.000118000071
      2   S      12          3650.0000000   -0.000915000550
      2   S      13           829.6000000   -0.004737002847
      2   S      14           234.0000000   -0.019233011560
      2   S      15            75.6100000   -0.060369036285
      2   S      16            26.7300000   -0.142508085655
      2   S      17             9.9270000   -0.177710106813
      2   S      18             2.8360000    0.177352106598
      2   S      19             1.1020000    0.605836364140
      2   S      20             0.3782000    0.365109219450

      3   S      21             2.8360000    1.000000000000

      4   S      22             0.3782000    1.000000000000

      5   S      23             0.1133000    1.000000000000

      6   P      24            54.7000000    0.017150998185
      6   P      25            12.4300000    0.107655988606
      6   P      26             3.6790000    0.321680965953
      6   P      27             1.1430000    0.485231948642
      6   P      28             0.3300000    0.332583964799

      7   P      29             1.1430000    1.000000000000

      8   P      30             0.3300000    1.000000000000

      9   P      31             0.0917500    1.000000000000

     10   D      32             4.0140000    1.000000000000

     11   D      33             1.0960000    1.000000000000

     12   D      34             0.3860000    1.000000000000

     13   F      35             2.5440000    1.000000000000

     14   F      36             1.0840000    1.000000000000

     15   S      37             0.2456452    1.000000000000

     16   S      38             0.0984957    1.000000000000

     17   S      39             0.0527254    1.000000000000

     18   S      40             0.0327748    1.000000000000

     19   S      41             0.0223274    1.000000000000

     20   S      42             0.0161822    1.000000000000

     21   S      43             0.0122645    1.000000000000

     22   S      44             0.0096146    1.000000000000

     23   S      45             0.0077393    1.000000000000

     24   S      46             0.0063635    1.000000000000

     25   P      47             0.4300822    1.000000000000

     26   P      48             0.1693411    1.000000000000

     27   P      49             0.0898939    1.000000000000

     28   P      50             0.0556109    1.000000000000

     29   P      51             0.0377660    1.000000000000

     30   P      52             0.0273116    1.000000000000

     31   P      53             0.0206659    1.000000000000

     32   P      54             0.0161806    1.000000000000

     33   P      55             0.0130116    1.000000000000

     34   P      56             0.0106899    1.000000000000

     35   D      57             0.6225575    1.000000000000

     36   D      58             0.2421608    1.000000000000

     37   D      59             0.1278396    1.000000000000

     38   D      60             0.0788350    1.000000000000

     39   D      61             0.0534281    1.000000000000

     40   D      62             0.0385827    1.000000000000

     41   D      63             0.0291633    1.000000000000

     42   D      64             0.0228152    1.000000000000

     43   D      65             0.0183349    1.000000000000

     44   D      66             0.0150555    1.000000000000

 TOTAL NUMBER OF BASIS SET SHELLS             =   44
 NUMBER OF CARTESIAN GAUSSIAN BASIS FUNCTIONS =  155
 NUMBER OF ELECTRONS                          =    9
 CHARGE OF MOLECULE                           =    1
 SPIN MULTIPLICITY                            =    2
 NUMBER OF OCCUPIED ORBITALS (ALPHA)          =    5
 NUMBER OF OCCUPIED ORBITALS (BETA )          =    4
 TOTAL NUMBER OF ATOMS                        =    1
 THE NUCLEAR REPULSION ENERGY IS        0.0000000000

 THIS MOLECULE IS RECOGNIZED AS BEING LINEAR,
 ORBITAL LZ DEGENERACY TOLERANCE ETOLLZ= 1.00E-06

     $CONTRL OPTIONS
     ---------------
 SCFTYP=NONE         RUNTYP=TRANSITN     EXETYP=RUN     
 MPLEVL=       0     CITYP =GUGA         CCTYP =NONE         VBTYP =NONE    
 DFTTYP=NONE         TDDFT =NONE    
 MULT  =       2     ICHARG=       1     NZVAR =       0     COORD =UNIQUE  
 PP    =NONE         RELWFN=NONE         LOCAL =NONE         NUMGRD=       F
 ISPHER=      -1     NOSYM =       0     MAXIT =      30     UNITS =ANGS    
 PLTORB=       F     MOLPLT=       F     AIMPAC=       F     FRIEND=        
 NPRINT=       7     IREST =       0     GEOM  =INPUT   
 NORMF =       0     NORMP =       0     ITOL  =      30     ICUT  =      20
 INTTYP=BEST         GRDTYP=BEST         QMTTOL= 1.0E-08

     $SYSTEM OPTIONS
     ---------------
  REPLICATED MEMORY=   100000000 WORDS (ON EVERY NODE).
 DISTRIBUTED MEMDDI=           0 MILLION WORDS IN AGGREGATE,
 MEMDDI DISTRIBUTED OVER   1 PROCESSORS IS           0 WORDS/PROCESSOR.
 TOTAL MEMORY REQUESTED ON EACH PROCESSOR=   100000000 WORDS.
 TIMLIM=       20000.00 MINUTES, OR      13.9 DAYS.
 PARALL= F  BALTYP=  DLB     KDIAG=    1  COREFL= F
 MXSEQ2=     300 MXSEQ3=     150  mem10=         0  mem22=         0

 Using Gaussians for PCM contribution to MEP, params: 0.10000E+01 0.10000E-07

          ----------------
          PROPERTIES INPUT
          ----------------

     MOMENTS            FIELD           POTENTIAL          DENSITY
 IEMOM =       1   IEFLD =       0   IEPOT =       0   IEDEN =       0
 WHERE =COMASS     WHERE =NUCLEI     WHERE =NUCLEI     WHERE =NUCLEI  
 OUTPUT=BOTH       OUTPUT=BOTH       OUTPUT=BOTH       OUTPUT=BOTH    
 IEMINT=       0   IEFINT=       0                     IEDINT=       0
                                                       MORB  =       0
          EXTRAPOLATION IN EFFECT
          DIIS IN EFFECT
 ORBITAL PRINTING OPTION: NPREO=     1   155     2     1

     -------------------------------
     INTEGRAL TRANSFORMATION OPTIONS
     -------------------------------
     NWORD  =            0
     CUTOFF = 1.0E-16     MPTRAN =       0
     DIRTRF =       T     AOINTS =DUP     

          --------------
          OPENMP OPTIONS
          --------------
 INTOMP  =       1
 SHFOCK  =       F

 THREADED 2-ELECTRON INTEGRAL CODE WILL BE USED
 NUMBER OF OPENMP THREADS:     4

 2E INTS ALGORITHM: MPI(I)  + OPENMP(JK)
 PRIVATE FOCK MATRIX CODE WILL BE USED

          ----------------------
          INTEGRAL INPUT OPTIONS
          ----------------------
 NOPK  =       1 NORDER=       0 SCHWRZ=       T

     ------------------------------------------
     THE POINT GROUP IS DND, NAXIS= 2, ORDER= 8
     ------------------------------------------

     DIMENSIONS OF THE SYMMETRY SUBSPACES ARE
 A1  =   43     B2  =   31     B1  =   13     A2  =    2     E   =   33

 ..... DONE SETTING UP THE RUN .....
 STEP CPU TIME =     0.45 TOTAL CPU TIME =          0.5 (      0.0 MIN)
 TOTAL WALL CLOCK TIME=          0.2 SECONDS, CPU UTILIZATION IS   211.24%

     ------------------------
     TRANSITION MOMENT DRIVER
     ------------------------

     -------------------------------
     INPUT FOR TRANSITION MOMENT RUN
     -------------------------------
     OPERAT=DM           NFZC  =       0     NOCC  =       5
     NUMCI =       1     NUMVEC=       1     SYMTOL=   1.0E-04
     IPRHSO=       0     NOSYM =      -1     ETOL  =   100.000000
     UPPER ENERGY LIMIT FOR SPIN-ORBIT CI MATRIX   =      100.000 HARTREE.
     TMOMNT=       F     SKIPDM=       T     PRTPRM=       F
     SLOWFF=       F     PHYSRC=       F     MODPAR=       3
     JZ    =       1     PARMP =      -2     ZEFTYP=TRUE    
     MCP2E =       0     ONECNT=       0     NFFBUF=      -1
     EEQTOL=   0.10E-05  ISTNO =  0  0
     DEGTOL= .0200 .0020

     L2VAL =        -1
     IROOTS=         5
     NSTATE=         5
     IVEX  =         1

          ********************
          1 ELECTRON INTEGRALS
          ********************
 ...... END OF ONE-ELECTRON INTEGRALS ......
 STEP CPU TIME =     0.02 TOTAL CPU TIME =          0.5 (      0.0 MIN)
 TOTAL WALL CLOCK TIME=          0.2 SECONDS, CPU UTILIZATION IS   200.77%
 OPENING FILE SOCCDAT WITH       6 LOGICAL RECORDS OF       0 WORDS
 WITH A MAXIMUM OF           6 PHYSICAL RECORDS OF    2048 WORDS

 STATISTICS FOR GENERATION OF SYMMETRY ORBITAL -Q- MATRIX
 NUMBER OF CARTESIAN ATOMIC ORBITALS=        155
 NUMBER OF SPHERICAL CONTAMINANTS DROPPED=     0
 NUMBER OF LINEARLY DEPENDENT MOS DROPPED=    11
 TOTAL NUMBER OF MOS IN VARIATION SPACE=     144

 ...WARNING (SYMORB.SRC)...
 THE INPUT BASIS SET CONTAINS APPROXIMATE LINEAR DEPENDENCE.
 THE SMALLEST EIGENVALUE OF THE OVERLAP MATRIX IS  -6.472992E-16
 THERE ARE   11 EIGENVALUES LESS THAN QMTTOL=  1.00E-08
 EIGENVECTORS BELOW -QMTTOL- ARE DROPPED FROM THE MO SPACE,
 IN ORDER TO ELIMINATE THE APPROXIMATE LINEAR DEPENDENCE.

 THIS WILL MOST LIKELY CHANGE THE ENERGY ON THE ORDER OF TENS OF MICROHARTREES,
 DEPENDING ON THE NUMBER OF ORBITALS REMOVED.  THE VALUE OF QMTTOL CAN BE 
 CHANGED IN $CONTRL: JOBS WITH EIGENVALUES BELOW 1.0E-07 PROBABLY WON'T
 CONVERGE.  EIGENVALUES BETWEEN 1.0E-07 AND 1.0E-06 MAY REQUIRE LOOSENING OF
 THE DENSITY CRITERION (CONV IN $SCF), MORE ACCURATE INTEGRAL EVALUATION
 (ICUT=11 IN $CONTRL), MORE ACCURATE DIRECT SCF FOCK MATRIX
 CONSTRUCTION (FDIFF=.FALSE. IN $SCF), OR CHANGING THE SCF CONVERGER
 (DIIS=.TRUE. IN $SCF).

                    * * * * * WARNING * * * * *
 POSSIBLE LINEAR DEPENDENCE PROBLEMS DETECTED, INPUT QMTTOL= 1.0E-08,
 WITH    19 OVERLAP EIGENVALUES LYING BETWEEN 1.0E-05 AND QMTTOL.
 IF YOU EXPERIENCE SCF CONVERGENCE DIFFICULTIES WITH THE DENSITY ALMOST BUT
 NOT QUITE CONVERGED, YOU MAY NEED TO LOOSEN -QMTTOL- BY A FACTOR 5 TO 10.


          ----------------------
          CORRESPONDING ORBITALS
          ----------------------
 THE CORRESPONDING ORBITAL OVERLAPS ARE
  1.0000000000 1.0000000000 1.0000000000 1.0000000000 1.0000000000
 STEP CPU TIME =     0.07 TOTAL CPU TIME =          0.5 (      0.0 MIN)
 TOTAL WALL CLOCK TIME=          0.3 SECONDS, CPU UTILIZATION IS   213.97%

                    ----------------------
                    AO INTEGRAL TECHNOLOGY
                    ----------------------
     S,P,L SHELL ROTATED AXIS INTEGRALS, REPROGRAMMED BY
        KAZUYA ISHIMURA (IMS) AND JOSE SIERRA (SYNSTAR).
     S,P,D,L SHELL ROTATED AXIS INTEGRALS PROGRAMMED BY
        KAZUYA ISHIMURA (INSTITUTE FOR MOLECULAR SCIENCE).
     S,P,D,F,G SHELL TO TOTAL QUARTET ANGULAR MOMENTUM SUM 5,
        ERIC PROGRAM BY GRAHAM FLETCHER (ELORET AND NASA ADVANCED
        SUPERCOMPUTING DIVISION, AMES RESEARCH CENTER).
     S,P,D,F,G,L SHELL GENERAL RYS QUADRATURE PROGRAMMED BY
        MICHEL DUPUIS (PACIFIC NORTHWEST NATIONAL LABORATORY).

          --------------------
          2 ELECTRON INTEGRALS
          --------------------

 DIRECT SCF METHOD SKIPS INTEGRAL STORAGE ON DISK.
 DIRECT TRANSFORMATION SKIPS AO INTEGRAL STORAGE ON DISK.
  ...... END OF TWO-ELECTRON INTEGRALS .....
 STEP CPU TIME =     0.10 TOTAL CPU TIME =          0.6 (      0.0 MIN)
 TOTAL WALL CLOCK TIME=          0.3 SECONDS, CPU UTILIZATION IS   230.84%
 ...... END OF ORBITAL SELECTION ......


     -------------------------
      1-ST     CI CALCULATION
     -------------------------

          -----------------------     ----------------------------
          GUGA DISTINCT ROW TABLE     WRITTEN BY B.R.BROOKS,P.SAXE
          -----------------------     ----------------------------

      GROUP=C1           NPRT=       0
       FORS=       T   INTACT=       F
       FOCI=       F   MXNINT=   50000
       SOCI=       F   MXNEME=   10000
     IEXCIT=       0

      -CORE-    -INTERNAL-  -EXTERNAL-
     NFZC=   0   NDOC=   4   NEXT=   0
     NMCC=   0   NAOS=   0   NFZV=   0
                 NBOS=   0
                 NALP=   1
                 NVAL=   0

 THE MAXIMUM ELECTRON EXCITATION WILL BE   1

 THE FOLLOWING ANALYSIS IS BASED UPON THE $DATA POINT GROUP:

 SYMMETRIES FOR THE   0 CORE,   5 ACTIVE,   0 EXTERNAL MO-S ARE
   ACTIVE= A1    A1    B2    E     E   
           DOC   DOC   DOC   DOC   ALP 

 THE FOLLOWING ANALYSIS IS BASED UPON THE $DRT POINT GROUP:

 SYMMETRIES FOR THE   0 CORE,   5 ACTIVE,   0 EXTERNAL MO-S ARE
   ACTIVE= A     A     A     A     A   
           DOC   DOC   DOC   DOC   ALP 

 MOLECULAR CHARGE          =    1
 NUMBER OF ALPHA ELECTRONS =    5
 NUMBER OF  BETA ELECTRONS =    4

 THE ELECTRONIC STATE IS  2-A   

 THE DISTINCT ROW TABLE HAS        10 ROWS.
  THE WAVEFUNCTION CONTAINS         5 WALKS (CSF-S).

 TOTAL NUMBER OF INTEGRALS =        155
 NUMBER OF INTEGRALS/GROUP =        155
 NUMBER OF INTEGRAL GROUPS =          1
 MAXIMUM RECORD SIZES ARE     500 FOR UNIT 11      22 FOR UNIT 12
                            30001 FOR UNIT 15   30001 FOR UNIT 16
 ...... END OF -DRT- GENERATION ...... 
 STEP CPU TIME =     0.80 TOTAL CPU TIME =          1.4 (      0.0 MIN)
 TOTAL WALL CLOCK TIME=          0.8 SECONDS, CPU UTILIZATION IS   185.73%

     --------------------------------------------
     PARTIAL TWO ELECTRON INTEGRAL TRANSFORMATION
     --------------------------------------------

 NUMBER OF CORE MOLECULAR ORBITALS     =    0
 NUMBER OF OCCUPIED MOLECULAR ORBITALS =    5
 TOTAL NUMBER OF MOLECULAR ORBITALS    =    5
 TOTAL NUMBER OF ATOMIC ORBITALS       =  155
 THRESHOLD FOR KEEPING TRANSFORMED 2E- INTEGRALS = 1.000E-16
 AO INTEGRALS WILL BE CALCULATED IN DIRECT MODE...
 DIRECT TRANSFORMATION SKIPS AO INTEGRAL STORAGE ON DISK.
 SCHWARZ INEQUALITY OVERHEAD:     48447 INTEGRALS, T=        0.04

 PLAN A: REQUIREMENTS FOR FULLY IN-MEMORY TRANSFORMATION:
 # OF WORDS AVAILABLE =             99922999
 # OF WORDS NEEDED    =              9606267

 CHOOSING IN MEMORY PARTIAL TRANSFORMATION...
 DIRECT TRANSFORMATION SKIPS AO INTEGRAL STORAGE ON DISK.
 TOTAL NUMBER OF TRANSFORMED 2E- INTEGRALS KEPT =           39
 ... END OF INTEGRAL TRANSFORMATION ...
 STEP CPU TIME =     3.08 TOTAL CPU TIME =          4.5 (      0.1 MIN)
 TOTAL WALL CLOCK TIME=          3.5 SECONDS, CPU UTILIZATION IS   127.78%

          ------------------------
          GUGA-CI INTEGRAL SORTING
          ------------------------

     80071 WORDS NEEDED TO SORT            155 GUGA INTEGRALS IN MEMORY
  99922999 WORDS ARE AVAILABLE
 CHOOSING IN-MEMORY SORTING...
 IN CORE ALGORITHM SORTED             15 NON-ZERO 1E- INTEGRALS
 IN CORE ALGORITHM SORTED             39 NON-ZERO 2E- INTEGRALS
 ...... END OF INTEGRAL SORTING ...... 
 STEP CPU TIME =     0.01 TOTAL CPU TIME =          4.5 (      0.1 MIN)
 TOTAL WALL CLOCK TIME=          3.5 SECONDS, CPU UTILIZATION IS   127.62%

 -------------------------     ---------------------------------------
 ENERGY MATRIX CALCULATION     WRITTEN BY B.R.BROOKS,W.D.LAIDIG,P.SAXE
 -------------------------     ---------------------------------------

 COMPUTING THE HAMILTONIAN FOR THE         5 CSF-S...

          95 IS THE TOTAL NUMBER OF GENERATED LOOPS
          95 WERE CREATED BY THE LOOP-DRIVEN ALGORITHM
           0 WERE CREATED IMPLICITLY

          59 IS THE TOTAL NUMBER OF PROCESSED LOOPS
          55     DIAGONAL LOOPS ARE STORED ON WORK15 IN     1 BUFFERS OF  10000 ELEMENTS.
           4 OFF DIAGONAL LOOPS ARE STORED ON WORK16 IN     1 BUFFERS OF  10000 ELEMENTS.
 ...... END OF ENERGY MATRIX CALCULATION ...... 
 STEP CPU TIME =     0.01 TOTAL CPU TIME =          4.5 (      0.1 MIN)
 TOTAL WALL CLOCK TIME=          3.6 SECONDS, CPU UTILIZATION IS   127.46%

          -----------------------------------------
          DAVIDSON METHOD CI-MATRIX DIAGONALIZATION
                   WRITTEN BY STEVE ELBERT
          -----------------------------------------
 NUMBER OF STATES REQUESTED =     5
 MAX. NUMB. OF EXPAN. VEC   =    30
 MAX. NUMB. IMPROVED STATES =     5
 MAX. NUMB. OF ITERATIONS   =    50
 CONVERGENCE CRITERION      =    1.0E-06

 CHOOSING TO SOLVE SECULAR EQUATION IN MEMORY
 NUMBER OF WORDS AVAILABLE =   99922999
 NUMBER OF WORDS USED      =      31040
 ENERGY MATRIX BUFFER SIZE =      10000
 SOLUTION FOUND WITH DIRECT METHOD

 -------------------------------------------------
 NON-ABELIAN CI WAVEFUNCTION STATE SYMMETRY DRIVER
          WRITTEN BY DMITRI FEDOROV.
     MEMORY USED IS    38928 WORDS
 -------------------------------------------------

 ORBITAL  1(A1  ) HAS ROW FRACTIONS 100.% 
 ORBITAL  2(A1  ) HAS ROW FRACTIONS 100.% 
 ORBITAL  3(B2  ) HAS ROW FRACTIONS 100.% 
 ORBITAL  4(E   ) HAS ROW FRACTIONS 100.%   0.% 
 ORBITAL  5(E   ) HAS ROW FRACTIONS   0.% 100.% 

 STATE #    1  ENERGY =    -127.684457548

      CSF      COEF    OCCUPANCY (IGNORING CORE)
      ---      ----    --------- --------- -----
        1    1.000000  22212
 THE PROJECTION OF THIS CI STATE ONTO SPACE SYMMETRY E    WEIGHS 1.0000E+00


 STATE #    2  ENERGY =    -127.684457548

      CSF      COEF    OCCUPANCY (IGNORING CORE)
      ---      ----    --------- --------- -----
        5    1.000000  22221
 THE PROJECTION OF THIS CI STATE ONTO SPACE SYMMETRY E    WEIGHS 1.0000E+00


 STATE #    3  ENERGY =    -127.684446976

      CSF      COEF    OCCUPANCY (IGNORING CORE)
      ---      ----    --------- --------- -----
        2    1.000000  22122
 THE PROJECTION OF THIS CI STATE ONTO SPACE SYMMETRY B2   WEIGHS 1.0000E+00


 STATE #    4  ENERGY =    -126.602605381

      CSF      COEF    OCCUPANCY (IGNORING CORE)
      ---      ----    --------- --------- -----
        3    1.000000  21222
 THE PROJECTION OF THIS CI STATE ONTO SPACE SYMMETRY A1   WEIGHS 1.0000E+00


 STATE #    5  ENERGY =     -95.758052080

      CSF      COEF    OCCUPANCY (IGNORING CORE)
      ---      ----    --------- --------- -----
        4    1.000000  12222
 THE PROJECTION OF THIS CI STATE ONTO SPACE SYMMETRY A1   WEIGHS 1.0000E+00

 ...... END OF CI-MATRIX DIAGONALIZATION ......
 STEP CPU TIME =     0.01 TOTAL CPU TIME =          4.5 (      0.1 MIN)
 TOTAL WALL CLOCK TIME=          3.6 SECONDS, CPU UTILIZATION IS   127.29%

          ---------------------
          STORE CSF INFORMATION
          --------------------

 READING THE DRT FILE
 TITLE=DRT1    06:51:33 16-NOV-2020                                                    
 NUMBER OF CONFIGURATIONS =          5

 READING THE CI VECTOR FILE
 RUN TITLE=Ne aug-cc-pVTZ + Rydberg Kaufmann SPD 1-10                                      
 DRT TITLE=DRT1    06:51:33 16-NOV-2020                                                    
     5 STATES WERE COMPUTED, NWKS=         5

 STORING CSF AND CI COEF. INFORMATION FOR    5 STATES ON FILE  17.
     ENERGIES ARE ...
    -127.6844575   -127.6844575   -127.6844470   -126.6026054    -95.7580521
 ...... DONE STORING CSF INFORMATION ......
 STEP CPU TIME =     0.00 TOTAL CPU TIME =          4.5 (      0.1 MIN)
 TOTAL WALL CLOCK TIME=          3.6 SECONDS, CPU UTILIZATION IS   127.25%
 STEP CPU TIME =     0.00 TOTAL CPU TIME =          4.5 (      0.1 MIN)
 TOTAL WALL CLOCK TIME=          3.6 SECONDS, CPU UTILIZATION IS   127.23%

 ++++++++++++++++++++++++++++++++++++++++++++++++++++++++++++++++++++++


 THE SYMMETRIES OF THE ANGULAR MOMENTUM L AND TRANSLATION R:
 LX BELONGS TO E   
 LY BELONGS TO E   
 LZ BELONGS TO A2  
 RX BELONGS TO E   
 RY BELONGS TO E   
 RZ BELONGS TO B2  
 SOC INTEGRALS NEED BE CALCULATED FOR LX: YEA 
 SOC INTEGRALS NEED BE CALCULATED FOR LY: YEA 
 SOC INTEGRALS NEED BE CALCULATED FOR LZ: YEA 

     ---------------------------
     RADIATIVE TRANSITION MOMENT
             SHIRO KOSEKI
     ---------------------------

 ...... DONE WITH DIPOLE INTEGRALS ......
 STEP CPU TIME =     0.00 TOTAL CPU TIME =          4.6 (      0.1 MIN)
 TOTAL WALL CLOCK TIME=          3.6 SECONDS, CPU UTILIZATION IS   127.19%

 ...... DONE WITH DIPOLE VELOCITY INTEGRALS ......
 STEP CPU TIME =     0.00 TOTAL CPU TIME =          4.6 (      0.1 MIN)
 TOTAL WALL CLOCK TIME=          3.6 SECONDS, CPU UTILIZATION IS   127.15%

          ------------------
          TRANSITION MOMENTS
          ------------------

      97466 WORDS OF MEMORY ARE REQUIRED.

 RECOVER CI INFORMATION OF STATE 1.  IROOTS=    5

 THE FOLLOWING LEGEND IS USED BELOW:
 [C] - THE MATRIX ELEMENT ACTUALLY CALCULATED
 [Z] - ZERO BY POINT GROUP SYMMETRY

 [Z]'S ARE NOT CALCULATED.


          ---- LENGTH FORM ----

 THE NEXT PAIR ARE THE SAME STATE, SO THIS IS AN EXPECTATION VALUE,
 RATHER THAN A TRANSITION MOMENT.

 CI STATE NUMBER=  1  1 STATE MULTIPLICITY=  2  2
 NUMBER OF CSF-S=         5         5
 STATE ENERGIES         -127.6844575479     -127.6844575479
 TRANSITION ENERGY=  0.0000E+00 [1/SEC] =        0.00 [1/CM] =        0.00 [EV]
                          X [Z]       Y [Z]       Z [C]       NORM
 CENTER OF MASS    =    0.000000    0.000000    0.000000             BOHR
 TRANSITION DIPOLE =    0.000000    0.000000    0.000000    0.000000 E*BOHR
 TRANSITION DIPOLE =    0.000000    0.000000    0.000000    0.000000 DEBYE
 STEP CPU TIME =     0.01 TOTAL CPU TIME =          4.6 (      0.1 MIN)
 TOTAL WALL CLOCK TIME=          3.6 SECONDS, CPU UTILIZATION IS   127.13%

 CI STATE NUMBER=  1  2 STATE MULTIPLICITY=  2  2
 NUMBER OF CSF-S=         5         5
 STATE ENERGIES         -127.6844575479     -127.6844575479
 TRANSITION ENERGY=  9.3503E+01 [1/SEC] =        0.00 [1/CM] =        0.00 [EV]
                          X [Z]       Y [Z]       Z [C]       NORM
 CENTER OF MASS    =    0.000000    0.000000    0.000000             BOHR
 TRANSITION DIPOLE =   -0.000000   -0.000000   -0.000000    0.000000 E*BOHR
 TRANSITION DIPOLE =   -0.000000   -0.000000   -0.000000    0.000000 DEBYE
 OSCILLATOR STRENGTH =    0.000000
 EINSTEIN COEFFICIENTS: A=  1.3419E-50 1/SEC; B=  8.8595E-11 SEC/G
 STEP CPU TIME =     0.00 TOTAL CPU TIME =          4.6 (      0.1 MIN)
 TOTAL WALL CLOCK TIME=          3.6 SECONDS, CPU UTILIZATION IS   127.18%

 CI STATE NUMBER=  1  3 STATE MULTIPLICITY=  2  2
 NUMBER OF CSF-S=         5         5
 STATE ENERGIES         -127.6844575479     -127.6844469762
 TRANSITION ENERGY=  6.9559E+10 [1/SEC] =        2.32 [1/CM] =        0.00 [EV]
                          X [C]       Y [C]       Z [Z]       NORM
 CENTER OF MASS    =    0.000000    0.000000    0.000000             BOHR
 TRANSITION DIPOLE =   -0.000000    0.000000   -0.000000    0.000000 E*BOHR
 TRANSITION DIPOLE =   -0.000000    0.000000   -0.000000    0.000000 DEBYE
 OSCILLATOR STRENGTH =    0.000000
 EINSTEIN COEFFICIENTS: A=  2.2593E-23 1/SEC; B=  3.6231E-10 SEC/G
 STEP CPU TIME =     0.00 TOTAL CPU TIME =          4.6 (      0.1 MIN)
 TOTAL WALL CLOCK TIME=          3.6 SECONDS, CPU UTILIZATION IS   127.22%

 CI STATE NUMBER=  1  4 STATE MULTIPLICITY=  2  2
 NUMBER OF CSF-S=         5         5
 STATE ENERGIES         -127.6844575479     -126.6026053809
 TRANSITION ENERGY=  7.1182E+15 [1/SEC] =   237433.67 [1/CM] =       29.44 [EV]
                          X [C]       Y [C]       Z [Z]       NORM
 CENTER OF MASS    =    0.000000    0.000000    0.000000             BOHR
 TRANSITION DIPOLE =    0.521328   -0.000000   -0.000000    0.521328 E*BOHR
 TRANSITION DIPOLE =    1.325093   -0.000000   -0.000000    1.325093 DEBYE
 OSCILLATOR STRENGTH =    0.196019
 EINSTEIN COEFFICIENTS: A=  7.3708E+09 1/SEC; B=  1.1029E+08 SEC/G
 STEP CPU TIME =     0.00 TOTAL CPU TIME =          4.6 (      0.1 MIN)
 TOTAL WALL CLOCK TIME=          3.6 SECONDS, CPU UTILIZATION IS   127.27%

 CI STATE NUMBER=  1  5 STATE MULTIPLICITY=  2  2
 NUMBER OF CSF-S=         5         5
 STATE ENERGIES         -127.6844575479      -95.7580520797
 TRANSITION ENERGY=  2.1007E+17 [1/SEC] =  7006875.65 [1/CM] =      868.78 [EV]
                          X [C]       Y [C]       Z [Z]       NORM
 CENTER OF MASS    =    0.000000    0.000000    0.000000             BOHR
 TRANSITION DIPOLE =   -0.050781   -0.000000   -0.000000    0.050781 E*BOHR
 TRANSITION DIPOLE =   -0.129073   -0.000000   -0.000000    0.129073 DEBYE
 OSCILLATOR STRENGTH =    0.054885
 EINSTEIN COEFFICIENTS: A=  1.7974E+12 1/SEC; B=  1.0465E+06 SEC/G
 STEP CPU TIME =     0.00 TOTAL CPU TIME =          4.6 (      0.1 MIN)
 TOTAL WALL CLOCK TIME=          3.6 SECONDS, CPU UTILIZATION IS   127.32%

 THE NEXT PAIR ARE THE SAME STATE, SO THIS IS AN EXPECTATION VALUE,
 RATHER THAN A TRANSITION MOMENT.

 CI STATE NUMBER=  2  2 STATE MULTIPLICITY=  2  2
 NUMBER OF CSF-S=         5         5
 STATE ENERGIES         -127.6844575479     -127.6844575479
 TRANSITION ENERGY=  0.0000E+00 [1/SEC] =        0.00 [1/CM] =        0.00 [EV]
                          X [Z]       Y [Z]       Z [C]       NORM
 CENTER OF MASS    =    0.000000    0.000000    0.000000             BOHR
 TRANSITION DIPOLE =    0.000000    0.000000    0.000000    0.000000 E*BOHR
 TRANSITION DIPOLE =    0.000000    0.000000    0.000000    0.000000 DEBYE
 STEP CPU TIME =     0.00 TOTAL CPU TIME =          4.6 (      0.1 MIN)
 TOTAL WALL CLOCK TIME=          3.6 SECONDS, CPU UTILIZATION IS   127.38%

 CI STATE NUMBER=  2  3 STATE MULTIPLICITY=  2  2
 NUMBER OF CSF-S=         5         5
 STATE ENERGIES         -127.6844575479     -127.6844469762
 TRANSITION ENERGY=  6.9559E+10 [1/SEC] =        2.32 [1/CM] =        0.00 [EV]
                          X [C]       Y [C]       Z [Z]       NORM
 CENTER OF MASS    =    0.000000    0.000000    0.000000             BOHR
 TRANSITION DIPOLE =    0.000000   -0.000000   -0.000000    0.000000 E*BOHR
 TRANSITION DIPOLE =    0.000000   -0.000000   -0.000000    0.000000 DEBYE
 OSCILLATOR STRENGTH =    0.000000
 EINSTEIN COEFFICIENTS: A=  2.2593E-23 1/SEC; B=  3.6231E-10 SEC/G
 STEP CPU TIME =     0.00 TOTAL CPU TIME =          4.6 (      0.1 MIN)
 TOTAL WALL CLOCK TIME=          3.6 SECONDS, CPU UTILIZATION IS   127.42%

 CI STATE NUMBER=  2  4 STATE MULTIPLICITY=  2  2
 NUMBER OF CSF-S=         5         5
 STATE ENERGIES         -127.6844575479     -126.6026053809
 TRANSITION ENERGY=  7.1182E+15 [1/SEC] =   237433.67 [1/CM] =       29.44 [EV]
                          X [C]       Y [C]       Z [Z]       NORM
 CENTER OF MASS    =    0.000000    0.000000    0.000000             BOHR
 TRANSITION DIPOLE =   -0.000000    0.521328   -0.000000    0.521328 E*BOHR
 TRANSITION DIPOLE =   -0.000000    1.325093   -0.000000    1.325093 DEBYE
 OSCILLATOR STRENGTH =    0.196019
 EINSTEIN COEFFICIENTS: A=  7.3708E+09 1/SEC; B=  1.1029E+08 SEC/G
 STEP CPU TIME =     0.00 TOTAL CPU TIME =          4.6 (      0.1 MIN)
 TOTAL WALL CLOCK TIME=          3.6 SECONDS, CPU UTILIZATION IS   127.46%

 CI STATE NUMBER=  2  5 STATE MULTIPLICITY=  2  2
 NUMBER OF CSF-S=         5         5
 STATE ENERGIES         -127.6844575479      -95.7580520797
 TRANSITION ENERGY=  2.1007E+17 [1/SEC] =  7006875.65 [1/CM] =      868.78 [EV]
                          X [C]       Y [C]       Z [Z]       NORM
 CENTER OF MASS    =    0.000000    0.000000    0.000000             BOHR
 TRANSITION DIPOLE =   -0.000000   -0.050781   -0.000000    0.050781 E*BOHR
 TRANSITION DIPOLE =   -0.000000   -0.129073   -0.000000    0.129073 DEBYE
 OSCILLATOR STRENGTH =    0.054885
 EINSTEIN COEFFICIENTS: A=  1.7974E+12 1/SEC; B=  1.0465E+06 SEC/G
 STEP CPU TIME =     0.00 TOTAL CPU TIME =          4.6 (      0.1 MIN)
 TOTAL WALL CLOCK TIME=          3.6 SECONDS, CPU UTILIZATION IS   127.53%

 THE NEXT PAIR ARE THE SAME STATE, SO THIS IS AN EXPECTATION VALUE,
 RATHER THAN A TRANSITION MOMENT.

 CI STATE NUMBER=  3  3 STATE MULTIPLICITY=  2  2
 NUMBER OF CSF-S=         5         5
 STATE ENERGIES         -127.6844469762     -127.6844469762
 TRANSITION ENERGY=  0.0000E+00 [1/SEC] =        0.00 [1/CM] =        0.00 [EV]
                          X [Z]       Y [Z]       Z [Z]       NORM
 CENTER OF MASS    =    0.000000    0.000000    0.000000             BOHR
 TRANSITION DIPOLE =    0.000000    0.000000    0.000000    0.000000 E*BOHR
 TRANSITION DIPOLE =    0.000000    0.000000    0.000000    0.000000 DEBYE
 STEP CPU TIME =     0.00 TOTAL CPU TIME =          4.6 (      0.1 MIN)
 TOTAL WALL CLOCK TIME=          3.6 SECONDS, CPU UTILIZATION IS   127.57%

 CI STATE NUMBER=  3  4 STATE MULTIPLICITY=  2  2
 NUMBER OF CSF-S=         5         5
 STATE ENERGIES         -127.6844469762     -126.6026053809
 TRANSITION ENERGY=  7.1182E+15 [1/SEC] =   237431.35 [1/CM] =       29.44 [EV]
                          X [Z]       Y [Z]       Z [C]       NORM
 CENTER OF MASS    =    0.000000    0.000000    0.000000             BOHR
 TRANSITION DIPOLE =   -0.000000   -0.000000   -0.521326    0.521326 E*BOHR
 TRANSITION DIPOLE =   -0.000000   -0.000000   -1.325089    1.325089 DEBYE
 OSCILLATOR STRENGTH =    0.196016
 EINSTEIN COEFFICIENTS: A=  7.3705E+09 1/SEC; B=  1.1029E+08 SEC/G
 STEP CPU TIME =     0.01 TOTAL CPU TIME =          4.6 (      0.1 MIN)
 TOTAL WALL CLOCK TIME=          3.6 SECONDS, CPU UTILIZATION IS   127.66%

 CI STATE NUMBER=  3  5 STATE MULTIPLICITY=  2  2
 NUMBER OF CSF-S=         5         5
 STATE ENERGIES         -127.6844469762      -95.7580520797
 TRANSITION ENERGY=  2.1007E+17 [1/SEC] =  7006873.33 [1/CM] =      868.78 [EV]
                          X [Z]       Y [Z]       Z [C]       NORM
 CENTER OF MASS    =    0.000000    0.000000    0.000000             BOHR
 TRANSITION DIPOLE =   -0.000000   -0.000000    0.050780    0.050780 E*BOHR
 TRANSITION DIPOLE =   -0.000000   -0.000000    0.129072    0.129072 DEBYE
 OSCILLATOR STRENGTH =    0.054884
 EINSTEIN COEFFICIENTS: A=  1.7973E+12 1/SEC; B=  1.0465E+06 SEC/G
 STEP CPU TIME =     0.00 TOTAL CPU TIME =          4.6 (      0.1 MIN)
 TOTAL WALL CLOCK TIME=          3.6 SECONDS, CPU UTILIZATION IS   127.72%

 THE NEXT PAIR ARE THE SAME STATE, SO THIS IS AN EXPECTATION VALUE,
 RATHER THAN A TRANSITION MOMENT.

 CI STATE NUMBER=  4  4 STATE MULTIPLICITY=  2  2
 NUMBER OF CSF-S=         5         5
 STATE ENERGIES         -126.6026053809     -126.6026053809
 TRANSITION ENERGY=  0.0000E+00 [1/SEC] =        0.00 [1/CM] =        0.00 [EV]
                          X [Z]       Y [Z]       Z [Z]       NORM
 CENTER OF MASS    =    0.000000    0.000000    0.000000             BOHR
 TRANSITION DIPOLE =    0.000000    0.000000    0.000000    0.000000 E*BOHR
 TRANSITION DIPOLE =    0.000000    0.000000    0.000000    0.000000 DEBYE
 STEP CPU TIME =     0.00 TOTAL CPU TIME =          4.6 (      0.1 MIN)
 TOTAL WALL CLOCK TIME=          3.6 SECONDS, CPU UTILIZATION IS   127.74%

 CI STATE NUMBER=  4  5 STATE MULTIPLICITY=  2  2
 NUMBER OF CSF-S=         5         5
 STATE ENERGIES         -126.6026053809      -95.7580520797
 TRANSITION ENERGY=  2.0295E+17 [1/SEC] =  6769441.98 [1/CM] =      839.34 [EV]
                          X [Z]       Y [Z]       Z [Z]       NORM
 CENTER OF MASS    =    0.000000    0.000000    0.000000             BOHR
 TRANSITION DIPOLE =   -0.000000   -0.000000   -0.000000    0.000000 E*BOHR
 TRANSITION DIPOLE =   -0.000000   -0.000000   -0.000000    0.000000 DEBYE
 OSCILLATOR STRENGTH =    0.000000
 EINSTEIN COEFFICIENTS: A=  0.0000E+00 1/SEC; B=  0.0000E+00 SEC/G
 STEP CPU TIME =     0.00 TOTAL CPU TIME =          4.6 (      0.1 MIN)
 TOTAL WALL CLOCK TIME=          3.6 SECONDS, CPU UTILIZATION IS   127.76%

 THE NEXT PAIR ARE THE SAME STATE, SO THIS IS AN EXPECTATION VALUE,
 RATHER THAN A TRANSITION MOMENT.

 CI STATE NUMBER=  5  5 STATE MULTIPLICITY=  2  2
 NUMBER OF CSF-S=         5         5
 STATE ENERGIES          -95.7580520797      -95.7580520797
 TRANSITION ENERGY=  0.0000E+00 [1/SEC] =        0.00 [1/CM] =        0.00 [EV]
                          X [Z]       Y [Z]       Z [Z]       NORM
 CENTER OF MASS    =    0.000000    0.000000    0.000000             BOHR
 TRANSITION DIPOLE =    0.000000    0.000000    0.000000    0.000000 E*BOHR
 TRANSITION DIPOLE =    0.000000    0.000000    0.000000    0.000000 DEBYE
 STEP CPU TIME =     0.00 TOTAL CPU TIME =          4.6 (      0.1 MIN)
 TOTAL WALL CLOCK TIME=          3.6 SECONDS, CPU UTILIZATION IS   127.78%

          ---- VELOCITY FORM ----
 STEP CPU TIME =     0.01 TOTAL CPU TIME =          4.6 (      0.1 MIN)
 TOTAL WALL CLOCK TIME=          3.6 SECONDS, CPU UTILIZATION IS   128.01%

 CI STATE NUMBER=  1  2 STATE MULTIPLICITY=  2  2
 NUMBER OF CSF-S=         5         5
 STATE ENERGIES         -127.6844575479     -127.6844575479
 TRANSITION ENERGY=  9.3503E+01 [1/SEC] =        0.00 [1/CM] =        0.00 [EV]
                             X [Z]     Y [Z]     Z [C]     NORM
 DIPOLE VELOCITY <D/DQ> = -0.000000 -0.000000  0.000000  0.000000 E/BOHR
 OSCILLATOR STRENGTH IS  -10.000000
 STEP CPU TIME =     0.00 TOTAL CPU TIME =          4.6 (      0.1 MIN)
 TOTAL WALL CLOCK TIME=          3.6 SECONDS, CPU UTILIZATION IS   128.05%

 CI STATE NUMBER=  1  3 STATE MULTIPLICITY=  2  2
 NUMBER OF CSF-S=         5         5
 STATE ENERGIES         -127.6844575479     -127.6844469762
 TRANSITION ENERGY=  6.9559E+10 [1/SEC] =        2.32 [1/CM] =        0.00 [EV]
                             X [C]     Y [C]     Z [Z]     NORM
 DIPOLE VELOCITY <D/DQ> = -0.000000 -0.000000 -0.000000  0.000000 E/BOHR
 OSCILLATOR STRENGTH IS  -10.000000
 STEP CPU TIME =     0.00 TOTAL CPU TIME =          4.6 (      0.1 MIN)
 TOTAL WALL CLOCK TIME=          3.6 SECONDS, CPU UTILIZATION IS   128.10%

 CI STATE NUMBER=  1  4 STATE MULTIPLICITY=  2  2
 NUMBER OF CSF-S=         5         5
 STATE ENERGIES         -127.6844575479     -126.6026053809
 TRANSITION ENERGY=  7.1182E+15 [1/SEC] =   237433.67 [1/CM] =       29.44 [EV]
                             X [C]     Y [C]     Z [Z]     NORM
 DIPOLE VELOCITY <D/DQ> =  0.457607 -0.000000 -0.000000  0.457607 E/BOHR
 OSCILLATOR STRENGTH IS    0.129041
 STEP CPU TIME =     0.00 TOTAL CPU TIME =          4.6 (      0.1 MIN)
 TOTAL WALL CLOCK TIME=          3.6 SECONDS, CPU UTILIZATION IS   128.13%

 CI STATE NUMBER=  1  5 STATE MULTIPLICITY=  2  2
 NUMBER OF CSF-S=         5         5
 STATE ENERGIES         -127.6844575479      -95.7580520797
 TRANSITION ENERGY=  2.1007E+17 [1/SEC] =  7006875.65 [1/CM] =      868.78 [EV]
                             X [C]     Y [C]     Z [Z]     NORM
 DIPOLE VELOCITY <D/DQ> = -1.509948 -0.000000 -0.000000  1.509948 E/BOHR
 OSCILLATOR STRENGTH IS    0.047608
 STEP CPU TIME =     0.00 TOTAL CPU TIME =          4.6 (      0.1 MIN)
 TOTAL WALL CLOCK TIME=          3.6 SECONDS, CPU UTILIZATION IS   128.17%
 STEP CPU TIME =     0.00 TOTAL CPU TIME =          4.6 (      0.1 MIN)
 TOTAL WALL CLOCK TIME=          3.6 SECONDS, CPU UTILIZATION IS   128.19%

 CI STATE NUMBER=  2  3 STATE MULTIPLICITY=  2  2
 NUMBER OF CSF-S=         5         5
 STATE ENERGIES         -127.6844575479     -127.6844469762
 TRANSITION ENERGY=  6.9559E+10 [1/SEC] =        2.32 [1/CM] =        0.00 [EV]
                             X [C]     Y [C]     Z [Z]     NORM
 DIPOLE VELOCITY <D/DQ> = -0.000000 -0.000000 -0.000000  0.000000 E/BOHR
 OSCILLATOR STRENGTH IS  -10.000000
 STEP CPU TIME =     0.00 TOTAL CPU TIME =          4.6 (      0.1 MIN)
 TOTAL WALL CLOCK TIME=          3.6 SECONDS, CPU UTILIZATION IS   128.22%

 CI STATE NUMBER=  2  4 STATE MULTIPLICITY=  2  2
 NUMBER OF CSF-S=         5         5
 STATE ENERGIES         -127.6844575479     -126.6026053809
 TRANSITION ENERGY=  7.1182E+15 [1/SEC] =   237433.67 [1/CM] =       29.44 [EV]
                             X [C]     Y [C]     Z [Z]     NORM
 DIPOLE VELOCITY <D/DQ> = -0.000000  0.457607 -0.000000  0.457607 E/BOHR
 OSCILLATOR STRENGTH IS    0.129041
 STEP CPU TIME =     0.00 TOTAL CPU TIME =          4.6 (      0.1 MIN)
 TOTAL WALL CLOCK TIME=          3.6 SECONDS, CPU UTILIZATION IS   128.24%

 CI STATE NUMBER=  2  5 STATE MULTIPLICITY=  2  2
 NUMBER OF CSF-S=         5         5
 STATE ENERGIES         -127.6844575479      -95.7580520797
 TRANSITION ENERGY=  2.1007E+17 [1/SEC] =  7006875.65 [1/CM] =      868.78 [EV]
                             X [C]     Y [C]     Z [Z]     NORM
 DIPOLE VELOCITY <D/DQ> = -0.000000 -1.509948 -0.000000  1.509948 E/BOHR
 OSCILLATOR STRENGTH IS    0.047608
 STEP CPU TIME =     0.00 TOTAL CPU TIME =          4.6 (      0.1 MIN)
 TOTAL WALL CLOCK TIME=          3.6 SECONDS, CPU UTILIZATION IS   128.26%
 STEP CPU TIME =     0.00 TOTAL CPU TIME =          4.6 (      0.1 MIN)
 TOTAL WALL CLOCK TIME=          3.6 SECONDS, CPU UTILIZATION IS   128.28%

 CI STATE NUMBER=  3  4 STATE MULTIPLICITY=  2  2
 NUMBER OF CSF-S=         5         5
 STATE ENERGIES         -127.6844469762     -126.6026053809
 TRANSITION ENERGY=  7.1182E+15 [1/SEC] =   237431.35 [1/CM] =       29.44 [EV]
                             X [Z]     Y [Z]     Z [C]     NORM
 DIPOLE VELOCITY <D/DQ> = -0.000000 -0.000000 -0.457627  0.457627 E/BOHR
 OSCILLATOR STRENGTH IS    0.129053
 STEP CPU TIME =     0.00 TOTAL CPU TIME =          4.6 (      0.1 MIN)
 TOTAL WALL CLOCK TIME=          3.6 SECONDS, CPU UTILIZATION IS   128.31%

 CI STATE NUMBER=  3  5 STATE MULTIPLICITY=  2  2
 NUMBER OF CSF-S=         5         5
 STATE ENERGIES         -127.6844469762      -95.7580520797
 TRANSITION ENERGY=  2.1007E+17 [1/SEC] =  7006873.33 [1/CM] =      868.78 [EV]
                             X [Z]     Y [Z]     Z [C]     NORM
 DIPOLE VELOCITY <D/DQ> = -0.000000 -0.000000  1.509882  1.509882 E/BOHR
 OSCILLATOR STRENGTH IS    0.047604
 STEP CPU TIME =     0.00 TOTAL CPU TIME =          4.6 (      0.1 MIN)
 TOTAL WALL CLOCK TIME=          3.6 SECONDS, CPU UTILIZATION IS   128.34%
 STEP CPU TIME =     0.00 TOTAL CPU TIME =          4.6 (      0.1 MIN)
 TOTAL WALL CLOCK TIME=          3.6 SECONDS, CPU UTILIZATION IS   128.36%

 CI STATE NUMBER=  4  5 STATE MULTIPLICITY=  2  2
 NUMBER OF CSF-S=         5         5
 STATE ENERGIES         -126.6026053809      -95.7580520797
 TRANSITION ENERGY=  2.0295E+17 [1/SEC] =  6769441.98 [1/CM] =      839.34 [EV]
                             X [Z]     Y [Z]     Z [Z]     NORM
 DIPOLE VELOCITY <D/DQ> = -0.000000 -0.000000 -0.000000  0.000000 E/BOHR
 OSCILLATOR STRENGTH IS    0.000000
 STEP CPU TIME =     0.00 TOTAL CPU TIME =          4.6 (      0.1 MIN)
 TOTAL WALL CLOCK TIME=          3.6 SECONDS, CPU UTILIZATION IS   128.37%
 STEP CPU TIME =     0.00 TOTAL CPU TIME =          4.6 (      0.1 MIN)
 TOTAL WALL CLOCK TIME=          3.6 SECONDS, CPU UTILIZATION IS   128.40%

 ....... DONE WITH TRANSITION MOMENT .......

 STEP CPU TIME =     0.00 TOTAL CPU TIME =          4.6 (      0.1 MIN)
 TOTAL WALL CLOCK TIME=          3.6 SECONDS, CPU UTILIZATION IS   128.43%
              9727367  WORDS OF DYNAMIC MEMORY USED
 EXECUTION OF GAMESS TERMINATED NORMALLY 06:51:36 16-NOV-2020    

          This is a threaded run. In some cases not all
          threaded components in GAMESS will saturate the
          total number of available threads on your system or
          set by OMP_NUM_THREADS

 DDI: 263640 bytes (0.3 MB / 0 MWords) used by master data server.

 ----------------------------------------
 CPU timing information for all processes
 ========================================
 0: 3.832 + 1.98 = 4.930
 ----------------------------------------
 ddikick.x: exited gracefully.
----- accounting info -----
Files used on the master node 40f085602989 were:
-rw------- 1 gamess gamess  308643 Nov 16 06:51 /tmp/ne+-guga.F05
-rw-r--r-- 1 gamess gamess  180144 Nov 16 06:51 /tmp/ne+-guga.F09
-rw-r--r-- 1 gamess gamess 3108400 Nov 16 06:51 /tmp/ne+-guga.F10
-rw-r--r-- 1 gamess gamess  276016 Nov 16 06:51 /tmp/ne+-guga.F11
-rw-r--r-- 1 gamess gamess     424 Nov 16 06:51 /tmp/ne+-guga.F12
-rw-r--r-- 1 gamess gamess  400008 Nov 16 06:51 /tmp/ne+-guga.F14
-rw-r--r-- 1 gamess gamess  160264 Nov 16 06:51 /tmp/ne+-guga.F15
-rw-r--r-- 1 gamess gamess  200216 Nov 16 06:51 /tmp/ne+-guga.F16
-rw-r--r-- 1 gamess gamess     288 Nov 16 06:51 /tmp/ne+-guga.F17
-rw-r--r-- 1 gamess gamess   32768 Nov 16 06:51 /tmp/ne+-guga.F40
Mon Nov 16 06:51:39 UTC 2020
19.5u 10.1s 0:36.48 81.3% 0+0k 608+608io 0pf+0w
