----- GAMESS execution script 'rungms' -----
This job is running on host 3b3cda2d69c0
under operating system Linux at Mon Nov 9 08:59:40 UTC 2020
Available scratch disk space (Kbyte units) at beginning of the job is
Filesystem     1K-blocks     Used Available Use% Mounted on
overlay         65789484 20151952  42265912  33% /
GAMESS temporary binary files will be written to /tmp
GAMESS supplementary output files will be written to /home/gamess/.gamess
Copying input file ./ne-cis.inp to your run's scratch directory...

 Distributed Data Interface kickoff program.
 Initiating 1 compute processes on 1 nodes to run the following command:
 /gamess/gamess.00.x ne-cis 

          *******************************************************
          *                                                     *
          *          GAMESS VERSION = 30 JUN 2020 (R1)          *
          *                                                     *
          *              doi.org/10.1063/5.0005188              *
          *                                                     *
          **************** 64 BIT LINUX VERSION *****************

  GAMESS HAS BEEN MADE POSSIBLE WITH IMPORTANT CONTRIBUTIONS FROM
  THE FOLLOWING INDIVIDUALS (IN ALPHABETICAL ORDER):

     IVANA ADAMOVIC, CHRISTINE AIKENS, TOMOKO AKAMA,
     YURI ALEXEEV, YURIKO AOKI, POOJA ARORA, TOSHIO ASADA,
     ANDREY ASADCHEV, KIM K. BALDRIDGE, PRADIPTA BANDYOPADHYAY,
     MARIA BARYSZ, ROB BELL, JONATHAN BENTZ, COLLEEN BERTONI,
     JERRY A. BOATZ, BRETT BODE, KURT BRORSEN, KURT R. BRORSEN,
     LAIMUTIS BYTAUTAS, CALEB CARLIN, LAURA CARRINGTON,
     GALINA CHABAN, BENOIT CHAMPAGNE, WEI CHEN, MAHITO CHIBA,
     DAN CHIPMAN, CHEOL HO CHOI, TANNER CULPITT, PAUL DAY,
     ALBERT DEFUSCO, NUWAN DESILVA, J. EMILIANO DEUSTUA,
     TIM DUDLEY, MICHEL DUPUIS, STEVEN T. ELBERT,
     DMITRI FEDOROV, ALEX FINDLATER, GRAHAM FLETCHER,
     MARK FREITAG, CHRISTIAN FRIEDL, DAVID GARMER,
     IGOR S. GERASIMOV, KURT GLAESEMANN, MARK S. GORDON,
     JEFFREY GOUR, FENG LONG GU, EMILIE B. GUIDEZ,
     ANASTASIA GUNINA, SHARON HAMMES-SCHIFFER, MASATAKE HARUTA,
     KIMIHIKO HIRAO, YASUHIRO IKABATA, TZVETELIN IORDANOV,
     STEPHAN IRLE, KAZUYA ISHIMURA, JOE IVANIC, FRANK JENSEN,
     JAN H. JENSEN, VISVALDAS KAIRYS, MUNEAKI KAMIYA,
     MICHIO KATOUDA, NAOAKI KAWAKAMI, DAN KEMP, BERNARD KIRTMAN,
     KAZUO KITAURA, MARIUSZ KLOBUKOWSKI, MASATO KOBAYASHI,
     PRAKASHAN KORAMBATH, JACEK KORCHOWIEC, SHIRO KOSEKI,
     KAROL KOWALSKI, JIMMY KROMANN, STANISLAW KUCHARSKI,
     HENRY KURTZ, SAROM SOK LEANG, HUI LI, SHUHUA LI, WEI LI,
     JESSE LUTZ, ALEKSANDR O. LYKHIN, MARCIN MAKOWSKI,
     JOANI MATO, NIKITA MATSUNAGA, BENEDETTA MENNUCCI,
     GRANT MERRILL, NORIYUKI MINEZAWA, VLADIMIR MIRONOV,
     EISAKU MIYOSHI, JOHN A. MONTGOMERY JR., HIROTOSHI MORI,
     JONATHAN MULLIN, MONIKA MUSIAL, SHIGERU NAGASE,
     TAKESHI NAGATA, HIROMI NAKAI, TAKAHITO NAKAJIMA,
     YUYA NAKAJIMA, HARUYUKI NAKANO, HIROYA NAKATA, SEAN NEDD,
     HEATHER NETZLOFF, KIET A. NGUYEN, YOSHIO NISHIMOTO,
     BOSILJKA NJEGIC, RYAN OLSON, MIKE PAK, ROBERTO PEVERATI,
     BUU PHAM, PIOTR PIECUCH, ANNA POMOGAEVA, DAVID POOLE,
     SPENCER PRUITT, OLIVIER QUINET, LUKE ROSKOP,
     KLAUS RUEDENBERG, ANDREW SAND, TOSAPORN SATTASATHUCHANA,
     NOZOMI SAWADA, MICHAEL W. SCHMIDT, PATRICK E. SCHNEIDER,
     JUNJI SEINO, PRACHI SHARMA, JUN SHEN, JIM SHOEMAKER,
     YINAN SHU, DEJUN SI, JONATHAN SKONE, LYUDMILA SLIPCHENKO,
     TONY SMITH, JIE SONG, MARK SPACKMAN, CASPER STEINMANN,
     WALT STEVENS, PEIFENG SU, SHUJUN SU, CHET SWALINA,
     TETSUYA TAKETSUGU, ZHEN TAO, NANDUN THELLAMUREGE
     SEIKEN TOKURA, JACOPO TOMASI, TSUGUKI TOUMA, TAKAO TSUNEDA,
     HIROAKI UMEDA, JORGE LUIS GALVEZ VALLEJO, YALI WANG,
     SIMON WEBB, AARON WEST, THERESA L. WINDUS, MARTA WLOCH,
     PENG XU, KIYOSHI YAGI, SUSUMU YANAGISAWA, YANG YANG,
     SOOHAENG YOO, TAKESHI YOSHIKAWA, FEDERICO ZAHARIEV,
     TOBY ZENG

  WHO ARE SUPPORTED BY THEIR INSTITUTION/UNIVERSITY/COMPANY/GROUP
  (IN ALPHABETICAL ORDER):

     EP ANALYTICS, FACULTES UNIVERSITAIRES NOTRE-DAME DE LA PAIX,
     INSTITUTE FOR MOLECULAR SCIENCE, IOWA STATE UNIVERSITY,
     JACKSON STATE UNIVERSITY, JOHANNES KEPLER UNIVERSITY LINZ,
     KYUSHU UNIVERSITY, MICHIGAN STATE UNIVERSITY,
     MIE UNIVERSITY, MOSCOW STATE UNIVERSITY,
     N. COPERNICUS UNIVERSITY, NAGOYA UNIVERSITY,
     NANJING UNIVERSITY, NAT. INST. OF ADVANCED INDUSTRIAL
     SCIENCE AND TECHNOLOGY, NATIONAL INST. OF STANDARDS AND
     TECHNOLOGY, NESMEYANOV INSTITUTE OF ORGANOELEMENT COMPOUNDS
     OF RUSSIAN ACADEMY OF SCIENCES, OSAKA PREFECTURE UNIVERSITY,
     PENNSYLVANIA STATE UNIVERSITY, TOKYO INSTITUTE OF TECHNOLOGY,
     UNIVERSITY OF AARHUS, UNIVERSITY OF ALBERTA,
     UNIVERSITY OF CALIFORNIA AT SANTA BARBARA,
     UNIVERSITY OF COPENHAGEN, UNIVERSITY OF IOWA,
     UNIVERSITY OF MEMPHIS, UNIVERSITY OF MINNESOTA,
     UNIVERSITY OF NEBRASKA, UNIVERSITY OF NEW ENGLAND,
     UNIVERSITY OF NOTRE DAME, UNIVERSITY OF PISA,
     UNIVERSITY OF SILESIA, UNIVERSITY OF TOKYO,
     UNIVERSITY OF ZURICH, WASEDA UNIVERSITY, YALE UNIVERSITY

  GAMESS SOFTWARE MANAGEMENT TEAM FOR THIS RELEASE:

     MARK S. GORDON (TEAM LEAD),
     BRETT BODE (SENIOR ADVISOR),
     GIUSEPPE BARCA,
     COLLEEN BERTONI,
     KRISTOPHER KEIPERT (ADVISOR),
     SAROM S. LEANG (DEVELOPMENT LEAD),
     BUU PHAM,
     JORGE LUIS GALVEZ VALLEJO (WEBSITE ADMINISTRATOR),
     PENG XU

 EXECUTION OF GAMESS BEGUN Mon Nov  9 09:00:06 2020

            ECHO OF THE FIRST FEW INPUT CARDS -
 INPUT CARD> $CONTRL SCFTYP=RHF   MPLEVL=0  CITYP=CIS   RUNTYP=ENERGY  MULT=1 ICHARG=+0     
 INPUT CARD>         ISPHER=+1 NOSYM=0 ITOL=40 ICUT=20                                      
 INPUT CARD>   $END                                                                         
 INPUT CARD> $SYSTEM TIMLIM=200000 MWORDS=250                                         $END  
 INPUT CARD>!$BASIS  GBASIS=APVTZ EXTFIL=.TRUE.                                       $END  
 INPUT CARD> $STATPT OPTTOL=1E-6                                                      $END  
 INPUT CARD> $FORCE  PURIFY=.FALSE. NVIB=2 VIBSIZ=0.001                               $END  
 INPUT CARD> $SCF    CONV=1E-8  FDIFF=.FALSE. DIRSCF=.TRUE. MVOQ=+0                   $END  
 INPUT CARD> $CIS    NACORE=0 NSTATE=100 HAMTYP=DETS CISPRP=.TRUE. IROOT=2            $END  
 INPUT CARD> $GUESS  GUESS=HUCKEL                                                     $END  
 INPUT CARD> $TRANS  CUTTRF=1E-16                                                     $END  
 INPUT CARD> $CIDET  NCORE=0 NACT=2 NELS=3 NSTATE=2 CVGTOL=1E-10 PRTTOL=-1                  
 INPUT CARD>    $END                                                                        
 INPUT CARD> $DATA                                                                          
 INPUT CARD>Ne aug-cc-pVTZ + Rydberg Kaufmann SPD 1-10                                      
 INPUT CARD>Dnd 2                                                                           
 INPUT CARD>                                                                                
 INPUT CARD> Ne         10.0   0.0000000000   0.0000000000   0.0000000000                   
 INPUT CARD>S   10                                                                          
 INPUT CARD>1         2.435000E+04           5.020000E-04                                   
 INPUT CARD>2         3.650000E+03           3.881000E-03                                   
 INPUT CARD>3         8.296000E+02           1.999700E-02                                   
 INPUT CARD>4         2.340000E+02           7.841800E-02                                   
 INPUT CARD>5         7.561000E+01           2.296760E-01                                   
 INPUT CARD>6         2.673000E+01           4.327220E-01                                   
 INPUT CARD>7         9.927000E+00           3.506420E-01                                   
 INPUT CARD>8         2.836000E+00           4.391100E-02                                   
 INPUT CARD>9         1.102000E+00          -7.645000E-03                                   
 INPUT CARD>10        3.782000E-01           2.375000E-03                                   
 INPUT CARD>S   10                                                                          
 INPUT CARD>1         2.435000E+04          -1.180000E-04                                   
 INPUT CARD>2         3.650000E+03          -9.150000E-04                                   
 INPUT CARD>3         8.296000E+02          -4.737000E-03                                   
 INPUT CARD>4         2.340000E+02          -1.923300E-02                                   
 INPUT CARD>5         7.561000E+01          -6.036900E-02                                   
 INPUT CARD>6         2.673000E+01          -1.425080E-01                                   
 INPUT CARD>7         9.927000E+00          -1.777100E-01                                   
 INPUT CARD>8         2.836000E+00           1.773520E-01                                   
 INPUT CARD>9         1.102000E+00           6.058360E-01                                   
 INPUT CARD>10        3.782000E-01           3.651090E-01                                   
 INPUT CARD>S   1                                                                           
 INPUT CARD>1         2.836000E+00           1.000000E+00                                   
 INPUT CARD>S   1                                                                           
 INPUT CARD>1         3.782000E-01           1.000000E+00                                   
 INPUT CARD>S   1                                                                           
 INPUT CARD>1         0.1133000              1.0000000                                      
 INPUT CARD>P   5                                                                           
 INPUT CARD>1         5.470000E+01           1.715100E-02                                   
 INPUT CARD>2         1.243000E+01           1.076560E-01                                   
 INPUT CARD>3         3.679000E+00           3.216810E-01                                   
  250000000 WORDS OF MEMORY AVAILABLE


     RUN TITLE
     ---------
 Ne aug-cc-pVTZ + Rydberg Kaufmann SPD 1-10                                      

 THE POINT GROUP OF THE MOLECULE IS DND     
 THE ORDER OF THE PRINCIPAL AXIS IS     2

 ATOM      ATOMIC                      COORDINATES (BOHR)
           CHARGE         X                   Y                   Z
 NE         10.0     0.0000000000        0.0000000000        0.0000000000

          INTERNUCLEAR DISTANCES (ANGS.)
          ------------------------------

                1 NE    

   1 NE      0.0000000  

  * ... LESS THAN  3.000


     ATOMIC BASIS SET
     ----------------
 THE CONTRACTED PRIMITIVE FUNCTIONS HAVE BEEN UNNORMALIZED
 THE CONTRACTED BASIS FUNCTIONS ARE NOW NORMALIZED TO UNITY

  SHELL TYPE  PRIMITIVE        EXPONENT          CONTRACTION COEFFICIENT(S)

 NE        

      1   S       1         24350.0000000    0.000501999728
      1   S       2          3650.0000000    0.003880997898
      1   S       3           829.6000000    0.019996989167
      1   S       4           234.0000000    0.078417957520
      1   S       5            75.6100000    0.229675875583
      1   S       6            26.7300000    0.432721765592
      1   S       7             9.9270000    0.350641810055
      1   S       8             2.8360000    0.043910976213
      1   S       9             1.1020000   -0.007644995859
      1   S      10             0.3782000    0.002374998713

      2   S      11         24350.0000000   -0.000118000071
      2   S      12          3650.0000000   -0.000915000550
      2   S      13           829.6000000   -0.004737002847
      2   S      14           234.0000000   -0.019233011560
      2   S      15            75.6100000   -0.060369036285
      2   S      16            26.7300000   -0.142508085655
      2   S      17             9.9270000   -0.177710106813
      2   S      18             2.8360000    0.177352106598
      2   S      19             1.1020000    0.605836364140
      2   S      20             0.3782000    0.365109219450

      3   S      21             2.8360000    1.000000000000

      4   S      22             0.3782000    1.000000000000

      5   S      23             0.1133000    1.000000000000

      6   P      24            54.7000000    0.017150998185
      6   P      25            12.4300000    0.107655988606
      6   P      26             3.6790000    0.321680965953
      6   P      27             1.1430000    0.485231948642
      6   P      28             0.3300000    0.332583964799

      7   P      29             1.1430000    1.000000000000

      8   P      30             0.3300000    1.000000000000

      9   P      31             0.0917500    1.000000000000

     10   D      32             4.0140000    1.000000000000

     11   D      33             1.0960000    1.000000000000

     12   D      34             0.3860000    1.000000000000

     13   F      35             2.5440000    1.000000000000

     14   F      36             1.0840000    1.000000000000

     15   S      37             0.2456452    1.000000000000

     16   S      38             0.0984957    1.000000000000

     17   S      39             0.0527254    1.000000000000

     18   S      40             0.0327748    1.000000000000

     19   S      41             0.0223274    1.000000000000

     20   S      42             0.0161822    1.000000000000

     21   S      43             0.0122645    1.000000000000

     22   S      44             0.0096146    1.000000000000

     23   S      45             0.0077393    1.000000000000

     24   S      46             0.0063635    1.000000000000

     25   P      47             0.4300822    1.000000000000

     26   P      48             0.1693411    1.000000000000

     27   P      49             0.0898939    1.000000000000

     28   P      50             0.0556109    1.000000000000

     29   P      51             0.0377660    1.000000000000

     30   P      52             0.0273116    1.000000000000

     31   P      53             0.0206659    1.000000000000

     32   P      54             0.0161806    1.000000000000

     33   P      55             0.0130116    1.000000000000

     34   P      56             0.0106899    1.000000000000

     35   D      57             0.6225575    1.000000000000

     36   D      58             0.2421608    1.000000000000

     37   D      59             0.1278396    1.000000000000

     38   D      60             0.0788350    1.000000000000

     39   D      61             0.0534281    1.000000000000

     40   D      62             0.0385827    1.000000000000

     41   D      63             0.0291633    1.000000000000

     42   D      64             0.0228152    1.000000000000

     43   D      65             0.0183349    1.000000000000

     44   D      66             0.0150555    1.000000000000

 TOTAL NUMBER OF BASIS SET SHELLS             =   44
 NUMBER OF CARTESIAN GAUSSIAN BASIS FUNCTIONS =  155
 NOTE: THIS RUN WILL RESTRICT THE MO VARIATION SPACE TO SPHERICAL HARMONICS.
 THE NUMBER OF ORBITALS KEPT IN THE VARIATIONAL SPACE WILL BE PRINTED LATER.
 NUMBER OF ELECTRONS                          =   10
 CHARGE OF MOLECULE                           =    0
 SPIN MULTIPLICITY                            =    1
 NUMBER OF OCCUPIED ORBITALS (ALPHA)          =    5
 NUMBER OF OCCUPIED ORBITALS (BETA )          =    5
 TOTAL NUMBER OF ATOMS                        =    1
 THE NUCLEAR REPULSION ENERGY IS        0.0000000000

 THIS MOLECULE IS RECOGNIZED AS BEING LINEAR,
 ORBITAL LZ DEGENERACY TOLERANCE ETOLLZ= 1.00E-06

     $CONTRL OPTIONS
     ---------------
 SCFTYP=RHF          RUNTYP=ENERGY       EXETYP=RUN     
 MPLEVL=       0     CITYP =CIS          CCTYP =NONE         VBTYP =NONE    
 DFTTYP=NONE         TDDFT =NONE    
 MULT  =       1     ICHARG=       0     NZVAR =       0     COORD =UNIQUE  
 PP    =NONE         RELWFN=NONE         LOCAL =NONE         NUMGRD=       F
 ISPHER=       1     NOSYM =       0     MAXIT =      30     UNITS =ANGS    
 PLTORB=       F     MOLPLT=       F     AIMPAC=       F     FRIEND=        
 NPRINT=       7     IREST =       0     GEOM  =INPUT   
 NORMF =       0     NORMP =       0     ITOL  =      40     ICUT  =      20
 INTTYP=BEST         GRDTYP=BEST         QMTTOL= 1.0E-06

     $SYSTEM OPTIONS
     ---------------
  REPLICATED MEMORY=   250000000 WORDS (ON EVERY NODE).
 DISTRIBUTED MEMDDI=           0 MILLION WORDS IN AGGREGATE,
 MEMDDI DISTRIBUTED OVER   1 PROCESSORS IS           0 WORDS/PROCESSOR.
 TOTAL MEMORY REQUESTED ON EACH PROCESSOR=   250000000 WORDS.
 TIMLIM=      200000.00 MINUTES, OR     138.9 DAYS.
 PARALL= F  BALTYP=  DLB     KDIAG=    0  COREFL= F
 MXSEQ2=     300 MXSEQ3=     150  mem10=         0  mem22=         0

 Using Gaussians for PCM contribution to MEP, params: 0.10000E+01 0.10000E-07

          ----------------
          PROPERTIES INPUT
          ----------------

     MOMENTS            FIELD           POTENTIAL          DENSITY
 IEMOM =       1   IEFLD =       0   IEPOT =       0   IEDEN =       0
 WHERE =COMASS     WHERE =NUCLEI     WHERE =NUCLEI     WHERE =NUCLEI  
 OUTPUT=BOTH       OUTPUT=BOTH       OUTPUT=BOTH       OUTPUT=BOTH    
 IEMINT=       0   IEFINT=       0                     IEDINT=       0
                                                       MORB  =       0
          EXTRAPOLATION IN EFFECT
          DIIS IN EFFECT
 ORBITAL PRINTING OPTION: NPREO=     1   155     2     1

     -------------------------------
     INTEGRAL TRANSFORMATION OPTIONS
     -------------------------------
     NWORD  =            0
     CUTOFF = 1.0E-16     MPTRAN =       0
     DIRTRF =       T     AOINTS =DUP     

          --------------
          OPENMP OPTIONS
          --------------
 INTOMP  =       1
 SHFOCK  =       F

 THREADED 2-ELECTRON INTEGRAL CODE WILL BE USED
 NUMBER OF OPENMP THREADS:     4

 2E INTS ALGORITHM: MPI(I)  + OPENMP(JK)
 PRIVATE FOCK MATRIX CODE WILL BE USED

          ----------------------
          INTEGRAL INPUT OPTIONS
          ----------------------
 NOPK  =       1 NORDER=       0 SCHWRZ=       T

     ------------------------------
     CI-SINGLES CONTROL INFORMATION
     ------------------------------
     NACORE =        0  NBCORE   =        0
     NSTATE =      100  IROOT    =        2
     HAMTYP = DETS      SAP MULT =        1
     DIAGZN = DAVID     MXVEC    =      800
     NDAVIT =       50  DAVCVG   = 1.00E-05
     CISPRP =        T  NGSVEC   =      200
     MNMEDG =        F  MNMEOP   =        F
     CHFSLV = CONJG     RDCISV   =        F
     DGAPRX =        T

     NUMBER OF CORE -A-  ORBITALS =     0
     NUMBER OF CORE -B-  ORBITALS =     0
     NUMBER OF OCC. -A-  ORBITALS =     5
     NUMBER OF OCC. -B-  ORBITALS =     5
     NUMBER OF MOLECULAR ORBITALS =   155
     NUMBER OF   BASIS  FUNCTIONS =   155


     ------------------------------------------
     THE POINT GROUP IS DND, NAXIS= 2, ORDER= 8
     ------------------------------------------

 -- VARIATIONAL SPACE WILL BE RESTRICTED TO PURE SPHERICAL HARMONICS ONLY --
 AFTER EXCLUDING CONTAMINANT COMBINATIONS FROM THE CARTESIAN GAUSSIAN BASIS
 SET, THE NUMBER OF SPHERICAL HARMONICS KEPT IN THE VARIATION SPACE IS  136

     DIMENSIONS OF THE SYMMETRY SUBSPACES ARE
 A1  =   30     B2  =   29     B1  =   13     A2  =    2     E   =   31

 ..... DONE SETTING UP THE RUN .....
 STEP CPU TIME =     0.26 TOTAL CPU TIME =          0.3 (      0.0 MIN)
 TOTAL WALL CLOCK TIME=          0.1 SECONDS, CPU UTILIZATION IS   311.11%

          ********************
          1 ELECTRON INTEGRALS
          ********************
 ...... END OF ONE-ELECTRON INTEGRALS ......
 STEP CPU TIME =     0.02 TOTAL CPU TIME =          0.3 (      0.0 MIN)
 TOTAL WALL CLOCK TIME=          0.1 SECONDS, CPU UTILIZATION IS   300.00%

          -------------
          GUESS OPTIONS
          -------------
          GUESS =HUCKEL            NORB  =       0          NORDER=       0
          MIX   =       F          PRTMO =       F          PUNMO =       F
          TOLZ  = 1.0E-08          TOLE  = 1.0E-05
          SYMDEN=       F          PURIFY=       F

 INITIAL GUESS ORBITALS GENERATED BY HUCKEL   ROUTINE.
 HUCKEL GUESS REQUIRES    171888 WORDS.

 STATISTICS FOR GENERATION OF SYMMETRY ORBITAL -Q- MATRIX
 NUMBER OF CARTESIAN ATOMIC ORBITALS=        155
 NUMBER OF SPHERICAL CONTAMINANTS DROPPED=    19
 NUMBER OF LINEARLY DEPENDENT MOS DROPPED=    15
 TOTAL NUMBER OF MOS IN VARIATION SPACE=     121

 ...WARNING (SYMORB.SRC)...
 THE INPUT BASIS SET CONTAINS APPROXIMATE LINEAR DEPENDENCE.
 THE SMALLEST EIGENVALUE OF THE OVERLAP MATRIX IS   1.130477E-09
 THERE ARE   15 EIGENVALUES LESS THAN QMTTOL=  1.00E-06
 EIGENVECTORS BELOW -QMTTOL- ARE DROPPED FROM THE MO SPACE,
 IN ORDER TO ELIMINATE THE APPROXIMATE LINEAR DEPENDENCE.

 THIS WILL MOST LIKELY CHANGE THE ENERGY ON THE ORDER OF TENS OF MICROHARTREES,
 DEPENDING ON THE NUMBER OF ORBITALS REMOVED.  THE VALUE OF QMTTOL CAN BE 
 CHANGED IN $CONTRL: JOBS WITH EIGENVALUES BELOW 1.0E-07 PROBABLY WON'T
 CONVERGE.  EIGENVALUES BETWEEN 1.0E-07 AND 1.0E-06 MAY REQUIRE LOOSENING OF
 THE DENSITY CRITERION (CONV IN $SCF), MORE ACCURATE INTEGRAL EVALUATION
 (ICUT=11 IN $CONTRL), MORE ACCURATE DIRECT SCF FOCK MATRIX
 CONSTRUCTION (FDIFF=.FALSE. IN $SCF), OR CHANGING THE SCF CONVERGER
 (DIIS=.TRUE. IN $SCF).

                    * * * * * WARNING * * * * *
 POSSIBLE LINEAR DEPENDENCE PROBLEMS DETECTED, INPUT QMTTOL= 1.0E-06,
 WITH     8 OVERLAP EIGENVALUES LYING BETWEEN 1.0E-05 AND QMTTOL.
 IF YOU EXPERIENCE SCF CONVERGENCE DIFFICULTIES WITH THE DENSITY ALMOST BUT
 NOT QUITE CONVERGED, YOU MAY NEED TO LOOSEN -QMTTOL- BY A FACTOR 5 TO 10.

 SYMMETRIES FOR INITIAL GUESS ORBITALS FOLLOW.   BOTH SET(S).
     5 ORBITALS ARE OCCUPIED (    1 CORE ORBITALS).
     2=A1       3=E        4=E        5=B2       6=A1       7=A1       8=A1  
     9=A1      10=A1      11=A1      12=A1      13=A1      14=A1      15=A1  
 ...... END OF INITIAL ORBITAL SELECTION ......
 STEP CPU TIME =     0.17 TOTAL CPU TIME =          0.5 (      0.0 MIN)
 TOTAL WALL CLOCK TIME=          0.1 SECONDS, CPU UTILIZATION IS   313.33%

                    ----------------------
                    AO INTEGRAL TECHNOLOGY
                    ----------------------
     S,P,L SHELL ROTATED AXIS INTEGRALS, REPROGRAMMED BY
        KAZUYA ISHIMURA (IMS) AND JOSE SIERRA (SYNSTAR).
     S,P,D,L SHELL ROTATED AXIS INTEGRALS PROGRAMMED BY
        KAZUYA ISHIMURA (INSTITUTE FOR MOLECULAR SCIENCE).
     S,P,D,F,G SHELL TO TOTAL QUARTET ANGULAR MOMENTUM SUM 5,
        ERIC PROGRAM BY GRAHAM FLETCHER (ELORET AND NASA ADVANCED
        SUPERCOMPUTING DIVISION, AMES RESEARCH CENTER).
     S,P,D,F,G,L SHELL GENERAL RYS QUADRATURE PROGRAMMED BY
        MICHEL DUPUIS (PACIFIC NORTHWEST NATIONAL LABORATORY).

          --------------------
          2 ELECTRON INTEGRALS
          --------------------

 DIRECT SCF METHOD SKIPS INTEGRAL STORAGE ON DISK.
 DIRECT TRANSFORMATION SKIPS AO INTEGRAL STORAGE ON DISK.
  ...... END OF TWO-ELECTRON INTEGRALS .....
 STEP CPU TIME =     0.17 TOTAL CPU TIME =          0.6 (      0.0 MIN)
 TOTAL WALL CLOCK TIME=          0.2 SECONDS, CPU UTILIZATION IS   336.84%

          --------------------------
                 RHF SCF CALCULATION
          --------------------------

     NUCLEAR ENERGY =         0.0000000000
     MAXIT =   30     NPUNCH=    2
     EXTRAP=T  DAMP=F  SHIFT=F  RSTRCT=F  DIIS=T  DEM=F  SOSCF=F
     DENSITY MATRIX CONV=  2.00E-08
     MEMORY REQUIRED FOR RHF ITERS=    227090 WORDS.

 DIRECT SCF CALCULATION, SCHWRZ=T   FDIFF=F,  DIRTHR=  0.00E+00 NITDIR=10
 SCHWARZ INEQUALITY OVERHEAD:     48447 INTEGRALS, T=        0.05

                                                                                   NONZERO     BLOCKS
 ITER EX DEM     TOTAL ENERGY        E CHANGE  DENSITY CHANGE    DIIS ERROR      INTEGRALS    SKIPPED
   1  0  0     -128.4172041147  -128.4172041147  11.028510420   1.094523457        4079820     131910
          * * *   INITIATING DIIS PROCEDURE   * * *
   2  1  0     -128.5322983896    -0.1150942750   0.449111779   0.029916214        9802653          0
   3  2  0     -128.5345280362    -0.0022296465   0.105744898   0.007953220        9802653          0
   4  3  0     -128.5346198521    -0.0000918160   0.003150256   0.001611161        9802653          0
   5  4  0     -128.5346234479    -0.0000035957   0.001864699   0.000227439        9802653          0
   6  5  0     -128.5346235242    -0.0000000764   0.000043177   0.000018123        9802653          0
   7  6  0     -128.5346235247    -0.0000000004   0.000007691   0.000001036        9802653          0
   8  7  0     -128.5346235247    -0.0000000000   0.000000591   0.000000062        9802653          0
   9  8  0     -128.5346235247     0.0000000000   0.000000062   0.000000004        9802653          0
  10  9  0     -128.5346235247     0.0000000000   0.000000004   0.000000000        9802653          0
  11 10  0     -128.5346235247    -0.0000000000   0.000000002   0.000000000        9802653          0

          -----------------
          DENSITY CONVERGED
          -----------------
     TIME TO FORM FOCK OPERATORS=      46.4 SECONDS (       4.2 SEC/ITER)
     FOCK TIME ON FIRST ITERATION=       1.9, LAST ITERATION=       4.4
     TIME TO SOLVE SCF EQUATIONS=       1.2 SECONDS (       0.1 SEC/ITER)

 FINAL RHF ENERGY IS     -128.5346235247 AFTER  11 ITERATIONS

 LZ VALUE ANALYSIS FOR THE MOS
 ----------------------------------------
 MO     1 (    1) HAS LZ(WEIGHT)= 0.00(100.0%) 
 MO     2 (    2) HAS LZ(WEIGHT)= 0.00(100.0%) 
 MO     3 (    3) HAS LZ(WEIGHT)= 0.00(100.0%) 
 MO     4 (    4) HAS LZ(WEIGHT)=-1.00( 50.0%)  1.00( 50.0%) 
 MO     5 (    4) HAS LZ(WEIGHT)=-1.00( 50.0%)  1.00( 50.0%) 
 MO     6 (    5) HAS LZ(WEIGHT)= 0.00(100.0%) 
 MO     7 (    6) HAS LZ(WEIGHT)= 0.00(100.0%) 
 MO     8 (    7) HAS LZ(WEIGHT)=-1.00( 50.0%)  1.00( 50.0%) 
 MO     9 (    7) HAS LZ(WEIGHT)=-1.00( 50.0%)  1.00( 50.0%) 
 MO    10 (    8) HAS LZ(WEIGHT)= 0.00(100.0%) 
 MO    11 (    9) HAS LZ(WEIGHT)= 0.00(100.0%) 
 MO    12 (    9) HAS LZ(WEIGHT)=-1.00( 50.0%)  1.00( 50.0%) 
 MO    13 (    9) HAS LZ(WEIGHT)=-1.00( 50.0%)  1.00( 50.0%) 
 MO    14 (    9) HAS LZ(WEIGHT)=-2.00( 50.0%)  2.00( 50.0%) 
 MO    15 (    9) HAS LZ(WEIGHT)=-2.00( 50.0%)  2.00( 50.0%) 
 MO    16 (   10) HAS LZ(WEIGHT)= 0.00(100.0%) 
 MO    17 (   11) HAS LZ(WEIGHT)=-1.00( 50.0%)  1.00( 50.0%) 
 MO    18 (   11) HAS LZ(WEIGHT)=-1.00( 50.0%)  1.00( 50.0%) 
 MO    19 (   12) HAS LZ(WEIGHT)= 0.00(100.0%) 
 MO    20 (   13) HAS LZ(WEIGHT)= 0.00(100.0%) 
 MO    21 (   13) HAS LZ(WEIGHT)=-1.00( 50.0%)  1.00( 50.0%) 
 MO    22 (   13) HAS LZ(WEIGHT)=-1.00( 50.0%)  1.00( 50.0%) 
 MO    23 (   13) HAS LZ(WEIGHT)=-2.00( 50.0%)  2.00( 50.0%) 
 MO    24 (   13) HAS LZ(WEIGHT)=-2.00( 50.0%)  2.00( 50.0%) 
 MO    25 (   14) HAS LZ(WEIGHT)= 0.00(100.0%) 
 MO    26 (   15) HAS LZ(WEIGHT)= 0.00(100.0%) 
 MO    27 (   16) HAS LZ(WEIGHT)=-1.00( 50.0%)  1.00( 50.0%) 
 MO    28 (   16) HAS LZ(WEIGHT)=-1.00( 50.0%)  1.00( 50.0%) 
 MO    29 (   17) HAS LZ(WEIGHT)=-2.00( 50.0%)  2.00( 50.0%) 
 MO    30 (   17) HAS LZ(WEIGHT)=-2.00( 50.0%)  2.00( 50.0%) 
 MO    31 (   17) HAS LZ(WEIGHT)=-1.00( 50.0%)  1.00( 50.0%) 
 MO    32 (   17) HAS LZ(WEIGHT)=-1.00( 50.0%)  1.00( 50.0%) 
 MO    33 (   17) HAS LZ(WEIGHT)= 0.00(100.0%) 
 MO    34 (   18) HAS LZ(WEIGHT)= 0.00(100.0%) 
 MO    35 (   19) HAS LZ(WEIGHT)= 0.00(100.0%) 
 MO    36 (   20) HAS LZ(WEIGHT)=-1.00( 50.0%)  1.00( 50.0%) 
 MO    37 (   20) HAS LZ(WEIGHT)=-1.00( 50.0%)  1.00( 50.0%) 
 MO    38 (   21) HAS LZ(WEIGHT)= 0.00(100.0%) 
 MO    39 (   21) HAS LZ(WEIGHT)=-1.00( 50.0%)  1.00( 50.0%) 
 MO    40 (   21) HAS LZ(WEIGHT)=-1.00( 50.0%)  1.00( 50.0%) 
 MO    41 (   21) HAS LZ(WEIGHT)=-2.00( 50.0%)  2.00( 50.0%) 
 MO    42 (   21) HAS LZ(WEIGHT)=-2.00( 50.0%)  2.00( 50.0%) 
 MO    43 (   22) HAS LZ(WEIGHT)= 0.00(100.0%) 
 MO    44 (   23) HAS LZ(WEIGHT)= 0.00(100.0%) 
 MO    45 (   24) HAS LZ(WEIGHT)=-1.00( 50.0%)  1.00( 50.0%) 
 MO    46 (   24) HAS LZ(WEIGHT)=-1.00( 50.0%)  1.00( 50.0%) 
 MO    47 (   25) HAS LZ(WEIGHT)=-2.00( 50.0%)  2.00( 50.0%) 
 MO    48 (   25) HAS LZ(WEIGHT)=-2.00( 50.0%)  2.00( 50.0%) 
 MO    49 (   25) HAS LZ(WEIGHT)=-1.00( 50.0%)  1.00( 50.0%) 
 MO    50 (   25) HAS LZ(WEIGHT)=-1.00( 50.0%)  1.00( 50.0%) 
 MO    51 (   25) HAS LZ(WEIGHT)= 0.00(100.0%) 
 MO    52 (   26) HAS LZ(WEIGHT)= 0.00(100.0%) 
 MO    53 (   27) HAS LZ(WEIGHT)= 0.00(100.0%) 
 MO    54 (   28) HAS LZ(WEIGHT)=-1.00( 50.0%)  1.00( 50.0%) 
 MO    55 (   28) HAS LZ(WEIGHT)=-1.00( 50.0%)  1.00( 50.0%) 
 MO    56 (   29) HAS LZ(WEIGHT)=-2.00( 50.0%)  2.00( 50.0%) 
 MO    57 (   29) HAS LZ(WEIGHT)=-2.00( 50.0%)  2.00( 50.0%) 
 MO    58 (   29) HAS LZ(WEIGHT)=-1.00( 50.0%)  1.00( 50.0%) 
 MO    59 (   29) HAS LZ(WEIGHT)=-1.00( 50.0%)  1.00( 50.0%) 
 MO    60 (   29) HAS LZ(WEIGHT)= 0.00(100.0%) 
 MO    61 (   30) HAS LZ(WEIGHT)= 0.00(100.0%) 
 MO    62 (   31) HAS LZ(WEIGHT)= 0.00(100.0%) 
 MO    63 (   32) HAS LZ(WEIGHT)= 0.00(100.0%) 
 MO    64 (   32) HAS LZ(WEIGHT)=-1.00( 50.0%)  1.00( 50.0%) 
 MO    65 (   32) HAS LZ(WEIGHT)=-1.00( 50.0%)  1.00( 50.0%) 
 MO    66 (   33) HAS LZ(WEIGHT)=-2.00( 50.0%)  2.00( 50.0%) 
 MO    67 (   33) HAS LZ(WEIGHT)=-2.00( 50.0%)  2.00( 50.0%) 
 MO    68 (   34) HAS LZ(WEIGHT)=-1.00( 50.0%)  1.00( 50.0%) 
 MO    69 (   34) HAS LZ(WEIGHT)=-1.00( 50.0%)  1.00( 50.0%) 
 MO    70 (   35) HAS LZ(WEIGHT)= 0.00(100.0%) 
 MO    71 (   36) HAS LZ(WEIGHT)=-2.00( 50.0%)  2.00( 50.0%) 
 MO    72 (   36) HAS LZ(WEIGHT)=-2.00( 50.0%)  2.00( 50.0%) 
 MO    73 (   37) HAS LZ(WEIGHT)=-1.00( 50.0%)  1.00( 50.0%) 
 MO    74 (   37) HAS LZ(WEIGHT)=-1.00( 50.0%)  1.00( 50.0%) 
 MO    75 (   37) HAS LZ(WEIGHT)= 0.00(100.0%) 
 MO    76 (   38) HAS LZ(WEIGHT)= 0.00(100.0%) 
 MO    77 (   39) HAS LZ(WEIGHT)=-1.00( 50.0%)  1.00( 50.0%) 
 MO    78 (   39) HAS LZ(WEIGHT)=-1.00( 50.0%)  1.00( 50.0%) 
 MO    79 (   40) HAS LZ(WEIGHT)= 0.00(100.0%) 
 MO    80 (   41) HAS LZ(WEIGHT)= 0.00(100.0%) 
 MO    81 (   42) HAS LZ(WEIGHT)=-1.00( 50.0%)  1.00( 50.0%) 
 MO    82 (   42) HAS LZ(WEIGHT)=-1.00( 50.0%)  1.00( 50.0%) 
 MO    83 (   43) HAS LZ(WEIGHT)=-2.00( 50.0%)  2.00( 50.0%) 
 MO    84 (   43) HAS LZ(WEIGHT)=-2.00( 50.0%)  2.00( 50.0%) 
 MO    85 (   44) HAS LZ(WEIGHT)=-1.00( 50.0%)  1.00( 50.0%) 
 MO    86 (   44) HAS LZ(WEIGHT)=-1.00( 50.0%)  1.00( 50.0%) 
 MO    87 (   45) HAS LZ(WEIGHT)= 0.00(100.0%) 
 MO    88 (   46) HAS LZ(WEIGHT)=-2.00( 50.0%)  2.00( 50.0%) 
 MO    89 (   46) HAS LZ(WEIGHT)=-2.00( 50.0%)  2.00( 50.0%) 
 MO    90 (   47) HAS LZ(WEIGHT)=-1.00( 50.0%)  1.00( 50.0%) 
 MO    91 (   47) HAS LZ(WEIGHT)=-1.00( 50.0%)  1.00( 50.0%) 
 MO    92 (   48) HAS LZ(WEIGHT)= 0.00(100.0%) 
 MO    93 (   49) HAS LZ(WEIGHT)= 0.00(100.0%) 
 MO    94 (   49) HAS LZ(WEIGHT)=-1.00( 50.0%)  1.00( 50.0%) 
 MO    95 (   49) HAS LZ(WEIGHT)=-1.00( 50.0%)  1.00( 50.0%) 
 MO    96 (   49) HAS LZ(WEIGHT)=-2.00( 50.0%)  2.00( 50.0%) 
 MO    97 (   49) HAS LZ(WEIGHT)=-2.00( 50.0%)  2.00( 50.0%) 
 MO    98 (   49) HAS LZ(WEIGHT)=-3.00( 50.0%)  3.00( 50.0%) 
 MO    99 (   49) HAS LZ(WEIGHT)=-3.00( 50.0%)  3.00( 50.0%) 
 MO   100 (   50) HAS LZ(WEIGHT)= 0.00(100.0%) 
 MO   101 (   51) HAS LZ(WEIGHT)= 0.00(100.0%) 
 MO   102 (   51) HAS LZ(WEIGHT)=-1.00( 50.0%)  1.00( 50.0%) 
 MO   103 (   51) HAS LZ(WEIGHT)=-1.00( 50.0%)  1.00( 50.0%) 
 MO   104 (   52) HAS LZ(WEIGHT)=-2.00( 50.0%)  2.00( 50.0%) 
 MO   105 (   52) HAS LZ(WEIGHT)=-2.00( 50.0%)  2.00( 50.0%) 
 MO   106 (   53) HAS LZ(WEIGHT)=-1.00( 50.0%)  1.00( 50.0%) 
 MO   107 (   53) HAS LZ(WEIGHT)=-1.00( 50.0%)  1.00( 50.0%) 
 MO   108 (   54) HAS LZ(WEIGHT)= 0.00(100.0%) 
 MO   109 (   55) HAS LZ(WEIGHT)=-3.00( 50.0%)  3.00( 50.0%) 
 MO   110 (   55) HAS LZ(WEIGHT)=-3.00( 50.0%)  3.00( 50.0%) 
 MO   111 (   55) HAS LZ(WEIGHT)=-2.00( 50.0%)  2.00( 50.0%) 
 MO   112 (   55) HAS LZ(WEIGHT)=-2.00( 50.0%)  2.00( 50.0%) 
 MO   113 (   55) HAS LZ(WEIGHT)=-1.00( 50.0%)  1.00( 50.0%) 
 MO   114 (   55) HAS LZ(WEIGHT)=-1.00( 50.0%)  1.00( 50.0%) 
 MO   115 (   55) HAS LZ(WEIGHT)= 0.00(100.0%) 
 MO   116 (   56) HAS LZ(WEIGHT)=-2.00( 50.0%)  2.00( 50.0%) 
 MO   117 (   56) HAS LZ(WEIGHT)=-2.00( 50.0%)  2.00( 50.0%) 
 MO   118 (   56) HAS LZ(WEIGHT)=-1.00( 50.0%)  1.00( 50.0%) 
 MO   119 (   56) HAS LZ(WEIGHT)=-1.00( 50.0%)  1.00( 50.0%) 
 MO   120 (   56) HAS LZ(WEIGHT)= 0.00(100.0%) 
 MO   121 (   57) HAS LZ(WEIGHT)= 0.00(100.0%) 

          ------------
          EIGENVECTORS
          ------------

                      1          2          3          4          5
                  -32.7766    -1.9320    -0.8502    -0.8502    -0.8502
                     A1         A1         B2         E          E   
    1  NE 1  S    0.998205  -0.002170  -0.000000  -0.000000  -0.000000
    2  NE 1  S   -0.005039   0.993706  -0.000000  -0.000000  -0.000000
    3  NE 1  S    0.001530   0.001157  -0.000000  -0.000000  -0.000000
    4  NE 1  S    0.016271   0.045531  -0.000000  -0.000000  -0.000000
    5  NE 1  S    0.064175   0.011042  -0.000000  -0.000000  -0.000000
    6  NE 1  X    0.000000  -0.000000  -0.000000   1.002216  -0.000000
    7  NE 1  Y    0.000000  -0.000000  -0.000000  -0.000000   1.002216
    8  NE 1  Z    0.000000  -0.000000   1.002031  -0.000000  -0.000000
    9  NE 1  X    0.000000  -0.000000  -0.000000  -0.009822  -0.000000
   10  NE 1  Y    0.000000  -0.000000  -0.000000  -0.000000  -0.009822
   11  NE 1  Z    0.000000  -0.000000  -0.008819  -0.000000  -0.000000
   12  NE 1  X    0.000000  -0.000000  -0.000000  -0.031393  -0.000000
   13  NE 1  Y    0.000000  -0.000000  -0.000000  -0.000000  -0.031393
   14  NE 1  Z    0.000000  -0.000000   0.001826  -0.000000  -0.000000
   15  NE 1  X    0.000000  -0.000000  -0.000000   0.124280  -0.000000
   16  NE 1  Y    0.000000  -0.000000  -0.000000  -0.000000   0.124280
   17  NE 1  Z    0.000000  -0.000000   0.318501  -0.000000  -0.000000
   18  NE 1 XX    0.000000  -0.000000  -0.000000  -0.000000  -0.000000
   19  NE 1 YY    0.000000  -0.000000  -0.000000  -0.000000  -0.000000
   20  NE 1 ZZ   -0.000000   0.000000  -0.000000  -0.000000  -0.000000
   21  NE 1 XY    0.000000  -0.000000  -0.000000  -0.000000  -0.000000
   22  NE 1 XZ    0.000000  -0.000000  -0.000000  -0.000000  -0.000000
   23  NE 1 YZ    0.000000  -0.000000  -0.000000  -0.000000  -0.000000
   24  NE 1 XX   -0.000000  -0.000002  -0.000000  -0.000000  -0.000000
   25  NE 1 YY   -0.000000  -0.000002  -0.000000  -0.000000  -0.000000
   26  NE 1 ZZ    0.000000   0.000003  -0.000000  -0.000000  -0.000000
   27  NE 1 XY    0.000000  -0.000000  -0.000000  -0.000000  -0.000000
   28  NE 1 XZ    0.000000  -0.000000  -0.000000  -0.000000  -0.000000
   29  NE 1 YZ    0.000000  -0.000000  -0.000000  -0.000000  -0.000000
   30  NE 1 XX   -0.000001  -0.000026  -0.000000  -0.000000  -0.000000
   31  NE 1 YY   -0.000001  -0.000026  -0.000000  -0.000000  -0.000000
   32  NE 1 ZZ    0.000001   0.000052  -0.000000  -0.000000  -0.000000
   33  NE 1 XY    0.000000  -0.000000  -0.000000  -0.000000  -0.000000
   34  NE 1 XZ    0.000000  -0.000000  -0.000000  -0.000000  -0.000000
   35  NE 1 YZ    0.000000  -0.000000  -0.000000  -0.000000  -0.000000
   36  NE 1 XXX   0.000000  -0.000000  -0.000000   0.000000  -0.000000
   37  NE 1 YYY   0.000000  -0.000000  -0.000000  -0.000000   0.000000
   38  NE 1 ZZZ   0.000000  -0.000000  -0.000000  -0.000000  -0.000000
   39  NE 1 XXY   0.000000  -0.000000  -0.000000  -0.000000   0.000000
   40  NE 1 XXZ   0.000000  -0.000000   0.000000  -0.000000  -0.000000
   41  NE 1 YYX   0.000000  -0.000000  -0.000000   0.000000  -0.000000
   42  NE 1 YYZ   0.000000  -0.000000   0.000000  -0.000000  -0.000000
   43  NE 1 ZZX   0.000000  -0.000000  -0.000000  -0.000000  -0.000000
   44  NE 1 ZZY   0.000000  -0.000000  -0.000000  -0.000000  -0.000000
   45  NE 1 XYZ   0.000000  -0.000000  -0.000000  -0.000000  -0.000000
   46  NE 1 XXX   0.000000  -0.000000  -0.000000  -0.000000  -0.000000
   47  NE 1 YYY   0.000000  -0.000000  -0.000000  -0.000000  -0.000000
   48  NE 1 ZZZ   0.000000  -0.000000   0.000000  -0.000000  -0.000000
   49  NE 1 XXY   0.000000  -0.000000  -0.000000  -0.000000  -0.000000
   50  NE 1 XXZ   0.000000  -0.000000  -0.000000  -0.000000  -0.000000
   51  NE 1 YYX   0.000000  -0.000000  -0.000000  -0.000000  -0.000000
   52  NE 1 YYZ   0.000000  -0.000000  -0.000000  -0.000000  -0.000000
   53  NE 1 ZZX   0.000000  -0.000000  -0.000000   0.000000  -0.000000
   54  NE 1 ZZY   0.000000  -0.000000  -0.000000  -0.000000   0.000000
   55  NE 1 XYZ   0.000000  -0.000000  -0.000000  -0.000000  -0.000000
   56  NE 1  S   -0.021202  -0.069348  -0.000000  -0.000000  -0.000000
   57  NE 1  S   -0.064014   0.048934  -0.000000  -0.000000  -0.000000
   58  NE 1  S    0.013564  -0.064344  -0.000000  -0.000000  -0.000000
   59  NE 1  S   -0.002224   0.064969  -0.000000  -0.000000  -0.000000
   60  NE 1  S   -0.014791  -0.020013  -0.000000  -0.000000  -0.000000
   61  NE 1  S    0.024297  -0.044823  -0.000000  -0.000000  -0.000000
   62  NE 1  S   -0.008390   0.041813  -0.000000  -0.000000  -0.000000
   63  NE 1  S   -0.017626   0.029156  -0.000000  -0.000000  -0.000000
   64  NE 1  S    0.021022  -0.056538  -0.000000  -0.000000  -0.000000
   65  NE 1  S   -0.007017   0.021847  -0.000000  -0.000000  -0.000000
   66  NE 1  X    0.000000  -0.000000  -0.000000   0.049860  -0.000000
   67  NE 1  Y    0.000000  -0.000000  -0.000000  -0.000000   0.049860
   68  NE 1  Z    0.000000  -0.000000   0.031581  -0.000000  -0.000000
   69  NE 1  X    0.000000  -0.000000  -0.000000  -0.094938  -0.000000
   70  NE 1  Y    0.000000  -0.000000  -0.000000  -0.000000  -0.094938
   71  NE 1  Z    0.000000  -0.000000  -0.147210  -0.000000  -0.000000
   72  NE 1  X    0.000000  -0.000000  -0.000000   0.095907  -0.000000
   73  NE 1  Y    0.000000  -0.000000  -0.000000  -0.000000   0.095907
   74  NE 1  Z    0.000000  -0.000000   0.047943  -0.000000  -0.000000
   75  NE 1  X    0.000000  -0.000000  -0.000000  -0.264980  -0.000000
   76  NE 1  Y    0.000000  -0.000000  -0.000000  -0.000000  -0.264980
   77  NE 1  Z    0.000000  -0.000000  -0.692731  -0.000000  -0.000000
   78  NE 1  X    0.000000  -0.000000  -0.000000   0.169760  -0.000000
   79  NE 1  Y    0.000000  -0.000000  -0.000000  -0.000000   0.169760
   80  NE 1  Z    0.000000  -0.000000   1.036121  -0.000000  -0.000000
   81  NE 1  X    0.000000  -0.000000  -0.000000   0.080668  -0.000000
   82  NE 1  Y    0.000000  -0.000000  -0.000000  -0.000000   0.080668
   83  NE 1  Z    0.000000  -0.000000  -0.876810  -0.000000  -0.000000
   84  NE 1  X    0.000000  -0.000000  -0.000000  -0.170735  -0.000000
   85  NE 1  Y    0.000000  -0.000000  -0.000000  -0.000000  -0.170735
   86  NE 1  Z    0.000000  -0.000000   0.018246  -0.000000  -0.000000
   87  NE 1  X    0.000000  -0.000000  -0.000000  -0.040297  -0.000000
   88  NE 1  Y    0.000000  -0.000000  -0.000000  -0.000000  -0.040297
   89  NE 1  Z    0.000000  -0.000000   0.783985  -0.000000  -0.000000
   90  NE 1  X    0.000000  -0.000000  -0.000000   0.183222  -0.000000
   91  NE 1  Y    0.000000  -0.000000  -0.000000  -0.000000   0.183222
   92  NE 1  Z    0.000000  -0.000000  -0.724727  -0.000000  -0.000000
   93  NE 1  X    0.000000  -0.000000  -0.000000  -0.083882  -0.000000
   94  NE 1  Y    0.000000  -0.000000  -0.000000  -0.000000  -0.083882
   95  NE 1  Z    0.000000  -0.000000   0.220529  -0.000000  -0.000000
   96  NE 1 XX    0.000000   0.000011  -0.000000  -0.000000  -0.000000
   97  NE 1 YY    0.000000   0.000011  -0.000000  -0.000000  -0.000000
   98  NE 1 ZZ   -0.000001  -0.000021  -0.000000  -0.000000  -0.000000
   99  NE 1 XY    0.000000  -0.000000  -0.000000  -0.000000  -0.000000
  100  NE 1 XZ    0.000000  -0.000000  -0.000000  -0.000000  -0.000000
  101  NE 1 YZ    0.000000  -0.000000  -0.000000  -0.000000  -0.000000
  102  NE 1 XX    0.000001   0.000036  -0.000000  -0.000000  -0.000000
  103  NE 1 YY    0.000001   0.000036  -0.000000  -0.000000  -0.000000
  104  NE 1 ZZ   -0.000001  -0.000071  -0.000000  -0.000000  -0.000000
  105  NE 1 XY    0.000000  -0.000000  -0.000000  -0.000000  -0.000000
  106  NE 1 XZ    0.000000  -0.000000  -0.000000  -0.000000  -0.000000
  107  NE 1 YZ    0.000000  -0.000000  -0.000000  -0.000000  -0.000000
  108  NE 1 XX   -0.000001  -0.000055  -0.000000  -0.000000  -0.000000
  109  NE 1 YY   -0.000001  -0.000055  -0.000000  -0.000000  -0.000000
  110  NE 1 ZZ    0.000002   0.000111  -0.000000  -0.000000  -0.000000
  111  NE 1 XY    0.000000  -0.000000  -0.000000  -0.000000  -0.000000
  112  NE 1 XZ    0.000000  -0.000000  -0.000000  -0.000000  -0.000000
  113  NE 1 YZ    0.000000  -0.000000  -0.000000  -0.000000  -0.000000
  114  NE 1 XX    0.000001   0.000102  -0.000000  -0.000000  -0.000000
  115  NE 1 YY    0.000001   0.000102  -0.000000  -0.000000  -0.000000
  116  NE 1 ZZ   -0.000003  -0.000204  -0.000000  -0.000000  -0.000000
  117  NE 1 XY    0.000000  -0.000000  -0.000000  -0.000000  -0.000000
  118  NE 1 XZ    0.000000  -0.000000  -0.000000  -0.000000  -0.000000
  119  NE 1 YZ    0.000000  -0.000000  -0.000000  -0.000000  -0.000000
  120  NE 1 XX   -0.000002  -0.000137  -0.000000  -0.000000  -0.000000
  121  NE 1 YY   -0.000002  -0.000137  -0.000000  -0.000000  -0.000000
  122  NE 1 ZZ    0.000004   0.000274  -0.000000  -0.000000  -0.000000
  123  NE 1 XY    0.000000  -0.000000  -0.000000  -0.000000  -0.000000
  124  NE 1 XZ    0.000000  -0.000000  -0.000000  -0.000000  -0.000000
  125  NE 1 YZ    0.000000  -0.000000  -0.000000  -0.000000  -0.000000
  126  NE 1 XX    0.000001   0.000100  -0.000000  -0.000000  -0.000000
  127  NE 1 YY    0.000001   0.000100  -0.000000  -0.000000  -0.000000
  128  NE 1 ZZ   -0.000003  -0.000200  -0.000000  -0.000000  -0.000000
  129  NE 1 XY    0.000000  -0.000000  -0.000000  -0.000000  -0.000000
  130  NE 1 XZ    0.000000  -0.000000  -0.000000  -0.000000  -0.000000
  131  NE 1 YZ    0.000000  -0.000000  -0.000000  -0.000000  -0.000000
  132  NE 1 XX    0.000000   0.000010  -0.000000  -0.000000  -0.000000
  133  NE 1 YY    0.000000   0.000010  -0.000000  -0.000000  -0.000000
  134  NE 1 ZZ   -0.000000  -0.000019  -0.000000  -0.000000  -0.000000
  135  NE 1 XY    0.000000  -0.000000  -0.000000  -0.000000  -0.000000
  136  NE 1 XZ    0.000000  -0.000000  -0.000000  -0.000000  -0.000000
  137  NE 1 YZ    0.000000  -0.000000  -0.000000  -0.000000  -0.000000
  138  NE 1 XX   -0.000001  -0.000090  -0.000000  -0.000000  -0.000000
  139  NE 1 YY   -0.000001  -0.000090  -0.000000  -0.000000  -0.000000
  140  NE 1 ZZ    0.000002   0.000179  -0.000000  -0.000000  -0.000000
  141  NE 1 XY    0.000000  -0.000000  -0.000000  -0.000000  -0.000000
  142  NE 1 XZ    0.000000  -0.000000  -0.000000  -0.000000  -0.000000
  143  NE 1 YZ    0.000000  -0.000000  -0.000000  -0.000000  -0.000000
  144  NE 1 XX    0.000001   0.000072  -0.000000  -0.000000  -0.000000
  145  NE 1 YY    0.000001   0.000072  -0.000000  -0.000000  -0.000000
  146  NE 1 ZZ   -0.000002  -0.000143  -0.000000  -0.000000  -0.000000
  147  NE 1 XY    0.000000  -0.000000  -0.000000  -0.000000  -0.000000
  148  NE 1 XZ    0.000000  -0.000000  -0.000000  -0.000000  -0.000000
  149  NE 1 YZ    0.000000  -0.000000  -0.000000  -0.000000  -0.000000
  150  NE 1 XX   -0.000000  -0.000019  -0.000000  -0.000000  -0.000000
  151  NE 1 YY   -0.000000  -0.000019  -0.000000  -0.000000  -0.000000
  152  NE 1 ZZ    0.000001   0.000039  -0.000000  -0.000000  -0.000000
  153  NE 1 XY    0.000000  -0.000000  -0.000000  -0.000000  -0.000000
  154  NE 1 XZ    0.000000  -0.000000  -0.000000  -0.000000  -0.000000
  155  NE 1 YZ    0.000000  -0.000000  -0.000000  -0.000000  -0.000000

                      6          7          8          9         10
                    0.0048     0.0129     0.0148     0.0148     0.0198
                     A1         B2         E          E          A1  
    1  NE 1  S   -0.001504  -0.000000   0.000000   0.000000  -0.005015
    2  NE 1  S    0.008609  -0.000000   0.000000   0.000000  -0.043191
    3  NE 1  S    0.000750  -0.000000   0.000000   0.000000   0.000519
    4  NE 1  S    0.123078  -0.000000   0.000000   0.000000   0.224862
    5  NE 1  S    5.528608  -0.000000   0.000000   0.000000  11.642715
    6  NE 1  X    0.000000  -0.000000   0.007999   0.000000  -0.000000
    7  NE 1  Y    0.000000  -0.000000   0.000000   0.007999  -0.000000
    8  NE 1  Z    0.000000   0.009564   0.000000   0.000000  -0.000000
    9  NE 1  X    0.000000  -0.000000   0.009037   0.000000  -0.000000
   10  NE 1  Y    0.000000  -0.000000   0.000000   0.009037  -0.000000
   11  NE 1  Z    0.000000  -0.007598   0.000000   0.000000  -0.000000
   12  NE 1  X    0.000000  -0.000000   0.325394   0.000000  -0.000000
   13  NE 1  Y    0.000000  -0.000000   0.000000   0.325394  -0.000000
   14  NE 1  Z    0.000000  -0.296855   0.000000   0.000000  -0.000000
   15  NE 1  X    0.000000  -0.000000   1.223623   0.000000  -0.000000
   16  NE 1  Y    0.000000  -0.000000   0.000000   1.223623  -0.000000
   17  NE 1  Z    0.000000  -5.010781   0.000000   0.000000  -0.000000
   18  NE 1 XX    0.000000  -0.000000   0.000000   0.000000   0.000000
   19  NE 1 YY    0.000000  -0.000000   0.000000   0.000000   0.000000
   20  NE 1 ZZ   -0.000000  -0.000000   0.000000   0.000000  -0.000000
   21  NE 1 XY    0.000000  -0.000000   0.000000   0.000000  -0.000000
   22  NE 1 XZ    0.000000  -0.000000   0.000000   0.000000  -0.000000
   23  NE 1 YZ    0.000000  -0.000000   0.000000   0.000000  -0.000000
   24  NE 1 XX    0.000000  -0.000000   0.000000   0.000000  -0.000000
   25  NE 1 YY    0.000000  -0.000000   0.000000   0.000000  -0.000000
   26  NE 1 ZZ   -0.000000  -0.000000   0.000000   0.000000   0.000000
   27  NE 1 XY    0.000000  -0.000000   0.000000   0.000000  -0.000000
   28  NE 1 XZ    0.000000  -0.000000   0.000000   0.000000  -0.000000
   29  NE 1 YZ    0.000000  -0.000000   0.000000   0.000000  -0.000000
   30  NE 1 XX    0.000001  -0.000000   0.000000   0.000000  -0.000003
   31  NE 1 YY    0.000001  -0.000000   0.000000   0.000000  -0.000003
   32  NE 1 ZZ   -0.000003  -0.000000   0.000000   0.000000   0.000005
   33  NE 1 XY    0.000000  -0.000000   0.000000   0.000000  -0.000000
   34  NE 1 XZ    0.000000  -0.000000   0.000000   0.000000  -0.000000
   35  NE 1 YZ    0.000000  -0.000000   0.000000   0.000000  -0.000000
   36  NE 1 XXX   0.000000  -0.000000   0.000000   0.000000  -0.000000
   37  NE 1 YYY   0.000000  -0.000000   0.000000   0.000000  -0.000000
   38  NE 1 ZZZ   0.000000   0.000000   0.000000   0.000000  -0.000000
   39  NE 1 XXY   0.000000  -0.000000   0.000000   0.000000  -0.000000
   40  NE 1 XXZ   0.000000  -0.000000   0.000000   0.000000  -0.000000
   41  NE 1 YYX   0.000000  -0.000000   0.000000   0.000000  -0.000000
   42  NE 1 YYZ   0.000000  -0.000000   0.000000   0.000000  -0.000000
   43  NE 1 ZZX   0.000000  -0.000000  -0.000000   0.000000  -0.000000
   44  NE 1 ZZY   0.000000  -0.000000   0.000000  -0.000000  -0.000000
   45  NE 1 XYZ   0.000000  -0.000000   0.000000   0.000000  -0.000000
   46  NE 1 XXX   0.000000  -0.000000  -0.000000   0.000000  -0.000000
   47  NE 1 YYY   0.000000  -0.000000   0.000000  -0.000000  -0.000000
   48  NE 1 ZZZ   0.000000  -0.000000   0.000000   0.000000  -0.000000
   49  NE 1 XXY   0.000000  -0.000000   0.000000  -0.000000  -0.000000
   50  NE 1 XXZ   0.000000   0.000000   0.000000   0.000000  -0.000000
   51  NE 1 YYX   0.000000  -0.000000  -0.000000   0.000000  -0.000000
   52  NE 1 YYZ   0.000000   0.000000   0.000000   0.000000  -0.000000
   53  NE 1 ZZX   0.000000  -0.000000   0.000000   0.000000  -0.000000
   54  NE 1 ZZY   0.000000  -0.000000   0.000000   0.000000  -0.000000
   55  NE 1 XYZ   0.000000  -0.000000   0.000000   0.000000  -0.000000
   56  NE 1  S   -0.380396  -0.000000   0.000000   0.000000  -0.786161
   57  NE 1  S   -7.296761  -0.000000   0.000000   0.000000 -15.486463
   58  NE 1  S    6.276328  -0.000000   0.000000   0.000000  13.468987
   59  NE 1  S  -11.805498  -0.000000   0.000000   0.000000 -25.518990
   60  NE 1  S   12.868781  -0.000000   0.000000   0.000000  27.430938
   61  NE 1  S    3.009033  -0.000000   0.000000   0.000000   7.461400
   62  NE 1  S  -20.574750  -0.000000   0.000000   0.000000 -43.980835
   63  NE 1  S    0.968733  -0.000000   0.000000   0.000000  -0.693567
   64  NE 1  S   31.818946  -0.000000   0.000000   0.000000  65.703391
   65  NE 1  S  -21.408766  -0.000000   0.000000   0.000000 -39.174459
   66  NE 1  X    0.000000  -0.000000  -0.174929   0.000000  -0.000000
   67  NE 1  Y    0.000000  -0.000000   0.000000  -0.174929  -0.000000
   68  NE 1  Z    0.000000   0.155853   0.000000   0.000000  -0.000000
   69  NE 1  X    0.000000  -0.000000  -0.537747   0.000000  -0.000000
   70  NE 1  Y    0.000000  -0.000000   0.000000  -0.537747  -0.000000
   71  NE 1  Z    0.000000   0.566714   0.000000   0.000000  -0.000000
   72  NE 1  X    0.000000  -0.000000   0.412313   0.000000  -0.000000
   73  NE 1  Y    0.000000  -0.000000   0.000000   0.412313  -0.000000
   74  NE 1  Z    0.000000   3.191165   0.000000   0.000000  -0.000000
   75  NE 1  X    0.000000  -0.000000  -4.546811   0.000000  -0.000000
   76  NE 1  Y    0.000000  -0.000000   0.000000  -4.546811  -0.000000
   77  NE 1  Z    0.000000   7.466074   0.000000   0.000000  -0.000000
   78  NE 1  X    0.000000  -0.000000   7.247566   0.000000  -0.000000
   79  NE 1  Y    0.000000  -0.000000   0.000000   7.247566  -0.000000
   80  NE 1  Z    0.000000 -21.637669   0.000000   0.000000  -0.000000
   81  NE 1  X    0.000000  -0.000000  -2.425889   0.000000  -0.000000
   82  NE 1  Y    0.000000  -0.000000   0.000000  -2.425889  -0.000000
   83  NE 1  Z    0.000000  36.101561   0.000000   0.000000  -0.000000
   84  NE 1  X    0.000000  -0.000000  -8.156863   0.000000  -0.000000
   85  NE 1  Y    0.000000  -0.000000   0.000000  -8.156863  -0.000000
   86  NE 1  Z    0.000000 -21.940960   0.000000   0.000000  -0.000000
   87  NE 1  X    0.000000  -0.000000   4.168682   0.000000  -0.000000
   88  NE 1  Y    0.000000  -0.000000   0.000000   4.168682  -0.000000
   89  NE 1  Z    0.000000 -28.413623   0.000000   0.000000  -0.000000
   90  NE 1  X    0.000000  -0.000000  12.496957   0.000000  -0.000000
   91  NE 1  Y    0.000000  -0.000000   0.000000  12.496957  -0.000000
   92  NE 1  Z    0.000000  56.379158   0.000000   0.000000  -0.000000
   93  NE 1  X    0.000000  -0.000000 -10.937296   0.000000  -0.000000
   94  NE 1  Y    0.000000  -0.000000   0.000000 -10.937296  -0.000000
   95  NE 1  Z    0.000000 -27.451289   0.000000   0.000000  -0.000000
   96  NE 1 XX   -0.000000  -0.000000   0.000000   0.000000   0.000001
   97  NE 1 YY   -0.000000  -0.000000   0.000000   0.000000   0.000001
   98  NE 1 ZZ    0.000001  -0.000000   0.000000   0.000000  -0.000002
   99  NE 1 XY    0.000000  -0.000000   0.000000   0.000000  -0.000000
  100  NE 1 XZ    0.000000  -0.000000   0.000000   0.000000  -0.000000
  101  NE 1 YZ    0.000000  -0.000000   0.000000   0.000000  -0.000000
  102  NE 1 XX   -0.000002  -0.000000   0.000000   0.000000   0.000004
  103  NE 1 YY   -0.000002  -0.000000   0.000000   0.000000   0.000004
  104  NE 1 ZZ    0.000004  -0.000000   0.000000   0.000000  -0.000008
  105  NE 1 XY    0.000000  -0.000000   0.000000   0.000000  -0.000000
  106  NE 1 XZ    0.000000  -0.000000   0.000000   0.000000  -0.000000
  107  NE 1 YZ    0.000000  -0.000000   0.000000   0.000000  -0.000000
  108  NE 1 XX    0.000004  -0.000000   0.000000   0.000000  -0.000007
  109  NE 1 YY    0.000004  -0.000000   0.000000   0.000000  -0.000007
  110  NE 1 ZZ   -0.000008  -0.000000   0.000000   0.000000   0.000013
  111  NE 1 XY    0.000000  -0.000000   0.000000   0.000000  -0.000000
  112  NE 1 XZ    0.000000  -0.000000   0.000000   0.000000  -0.000000
  113  NE 1 YZ    0.000000  -0.000000   0.000000   0.000000  -0.000000
  114  NE 1 XX   -0.000006  -0.000000   0.000000   0.000000   0.000009
  115  NE 1 YY   -0.000006  -0.000000   0.000000   0.000000   0.000009
  116  NE 1 ZZ    0.000011  -0.000000   0.000000   0.000000  -0.000019
  117  NE 1 XY    0.000000  -0.000000   0.000000   0.000000  -0.000000
  118  NE 1 XZ    0.000000  -0.000000   0.000000   0.000000  -0.000000
  119  NE 1 YZ    0.000000  -0.000000   0.000000   0.000000  -0.000000
  120  NE 1 XX    0.000004  -0.000000   0.000000   0.000000   0.000000
  121  NE 1 YY    0.000004  -0.000000   0.000000   0.000000   0.000000
  122  NE 1 ZZ   -0.000007  -0.000000   0.000000   0.000000  -0.000001
  123  NE 1 XY    0.000000  -0.000000   0.000000   0.000000  -0.000000
  124  NE 1 XZ    0.000000  -0.000000   0.000000   0.000000  -0.000000
  125  NE 1 YZ    0.000000  -0.000000   0.000000   0.000000  -0.000000
  126  NE 1 XX    0.000005  -0.000000   0.000000   0.000000  -0.000025
  127  NE 1 YY    0.000005  -0.000000   0.000000   0.000000  -0.000025
  128  NE 1 ZZ   -0.000010  -0.000000   0.000000   0.000000   0.000050
  129  NE 1 XY    0.000000  -0.000000   0.000000   0.000000  -0.000000
  130  NE 1 XZ    0.000000  -0.000000   0.000000   0.000000  -0.000000
  131  NE 1 YZ    0.000000  -0.000000   0.000000   0.000000  -0.000000
  132  NE 1 XX   -0.000009  -0.000000   0.000000   0.000000   0.000029
  133  NE 1 YY   -0.000009  -0.000000   0.000000   0.000000   0.000029
  134  NE 1 ZZ    0.000017  -0.000000   0.000000   0.000000  -0.000058
  135  NE 1 XY    0.000000  -0.000000   0.000000   0.000000  -0.000000
  136  NE 1 XZ    0.000000  -0.000000   0.000000   0.000000  -0.000000
  137  NE 1 YZ    0.000000  -0.000000   0.000000   0.000000  -0.000000
  138  NE 1 XX   -0.000003  -0.000000   0.000000   0.000000   0.000016
  139  NE 1 YY   -0.000003  -0.000000   0.000000   0.000000   0.000016
  140  NE 1 ZZ    0.000006  -0.000000   0.000000   0.000000  -0.000033
  141  NE 1 XY    0.000000  -0.000000   0.000000   0.000000  -0.000000
  142  NE 1 XZ    0.000000  -0.000000   0.000000   0.000000  -0.000000
  143  NE 1 YZ    0.000000  -0.000000   0.000000   0.000000  -0.000000
  144  NE 1 XX    0.000013  -0.000000   0.000000   0.000000  -0.000052
  145  NE 1 YY    0.000013  -0.000000   0.000000   0.000000  -0.000052
  146  NE 1 ZZ   -0.000026  -0.000000   0.000000   0.000000   0.000104
  147  NE 1 XY    0.000000  -0.000000   0.000000   0.000000  -0.000000
  148  NE 1 XZ    0.000000  -0.000000   0.000000   0.000000  -0.000000
  149  NE 1 YZ    0.000000  -0.000000   0.000000   0.000000  -0.000000
  150  NE 1 XX   -0.000007  -0.000000   0.000000   0.000000   0.000027
  151  NE 1 YY   -0.000007  -0.000000   0.000000   0.000000   0.000027
  152  NE 1 ZZ    0.000013  -0.000000   0.000000   0.000000  -0.000055
  153  NE 1 XY    0.000000  -0.000000   0.000000   0.000000  -0.000000
  154  NE 1 XZ    0.000000  -0.000000   0.000000   0.000000  -0.000000
  155  NE 1 YZ    0.000000  -0.000000   0.000000   0.000000  -0.000000

                     11         12         13         14         15
                    0.0281     0.0281     0.0281     0.0281     0.0281
                     A1         E          E          B2         B1  
    1  NE 1  S   -0.000000   0.000000   0.000000  -0.000000  -0.000000
    2  NE 1  S   -0.000000   0.000000   0.000000  -0.000000  -0.000000
    3  NE 1  S   -0.000000   0.000000   0.000000  -0.000000  -0.000000
    4  NE 1  S   -0.000000   0.000000   0.000000  -0.000000  -0.000000
    5  NE 1  S   -0.000010   0.000000   0.000000  -0.000000  -0.000000
    6  NE 1  X    0.000000   0.000000   0.000000  -0.000000  -0.000000
    7  NE 1  Y    0.000000   0.000000   0.000000  -0.000000  -0.000000
    8  NE 1  Z    0.000000   0.000000   0.000000  -0.000000  -0.000000
    9  NE 1  X    0.000000   0.000000   0.000000  -0.000000  -0.000000
   10  NE 1  Y    0.000000   0.000000   0.000000  -0.000000  -0.000000
   11  NE 1  Z    0.000000   0.000000   0.000000  -0.000000  -0.000000
   12  NE 1  X    0.000000   0.000000   0.000000  -0.000000  -0.000000
   13  NE 1  Y    0.000000   0.000000   0.000000  -0.000000  -0.000000
   14  NE 1  Z    0.000000   0.000000   0.000000  -0.000000  -0.000000
   15  NE 1  X    0.000000   0.000000   0.000000  -0.000000  -0.000000
   16  NE 1  Y    0.000000   0.000000   0.000000  -0.000000  -0.000000
   17  NE 1  Z    0.000000   0.000000   0.000000  -0.000000  -0.000000
   18  NE 1 XX   -0.000385   0.000000   0.000000  -0.000000   0.000666
   19  NE 1 YY   -0.000385   0.000000   0.000000  -0.000000  -0.000666
   20  NE 1 ZZ    0.000769   0.000000   0.000000  -0.000000  -0.000000
   21  NE 1 XY    0.000000   0.000000   0.000000   0.000769  -0.000000
   22  NE 1 XZ    0.000000   0.000000   0.000769  -0.000000  -0.000000
   23  NE 1 YZ    0.000000   0.000769   0.000000  -0.000000  -0.000000
   24  NE 1 XX    0.007719   0.000000   0.000000  -0.000000  -0.013369
   25  NE 1 YY    0.007719   0.000000   0.000000  -0.000000   0.013369
   26  NE 1 ZZ   -0.015437   0.000000   0.000000  -0.000000  -0.000000
   27  NE 1 XY    0.000000   0.000000   0.000000  -0.015437  -0.000000
   28  NE 1 XZ    0.000000   0.000000  -0.015437  -0.000000  -0.000000
   29  NE 1 YZ    0.000000  -0.015437   0.000000  -0.000000  -0.000000
   30  NE 1 XX    0.119500   0.000000   0.000000  -0.000000  -0.206979
   31  NE 1 YY    0.119500   0.000000   0.000000  -0.000000   0.206979
   32  NE 1 ZZ   -0.239000   0.000000   0.000000  -0.000000  -0.000000
   33  NE 1 XY    0.000000   0.000000   0.000000  -0.238999  -0.000000
   34  NE 1 XZ    0.000000   0.000000  -0.239000  -0.000000  -0.000000
   35  NE 1 YZ    0.000000  -0.239000   0.000000  -0.000000  -0.000000
   36  NE 1 XXX   0.000000   0.000000   0.000000  -0.000000  -0.000000
   37  NE 1 YYY   0.000000   0.000000   0.000000  -0.000000  -0.000000
   38  NE 1 ZZZ   0.000000   0.000000   0.000000  -0.000000  -0.000000
   39  NE 1 XXY   0.000000   0.000000   0.000000  -0.000000  -0.000000
   40  NE 1 XXZ   0.000000   0.000000   0.000000  -0.000000  -0.000000
   41  NE 1 YYX   0.000000   0.000000   0.000000  -0.000000  -0.000000
   42  NE 1 YYZ   0.000000   0.000000   0.000000  -0.000000  -0.000000
   43  NE 1 ZZX   0.000000   0.000000   0.000000  -0.000000  -0.000000
   44  NE 1 ZZY   0.000000   0.000000   0.000000  -0.000000  -0.000000
   45  NE 1 XYZ   0.000000   0.000000   0.000000  -0.000000  -0.000000
   46  NE 1 XXX   0.000000   0.000000   0.000000  -0.000000  -0.000000
   47  NE 1 YYY   0.000000   0.000000   0.000000  -0.000000  -0.000000
   48  NE 1 ZZZ   0.000000   0.000000   0.000000  -0.000000  -0.000000
   49  NE 1 XXY   0.000000   0.000000   0.000000  -0.000000  -0.000000
   50  NE 1 XXZ   0.000000   0.000000   0.000000  -0.000000  -0.000000
   51  NE 1 YYX   0.000000   0.000000   0.000000  -0.000000  -0.000000
   52  NE 1 YYZ   0.000000   0.000000   0.000000  -0.000000  -0.000000
   53  NE 1 ZZX   0.000000   0.000000   0.000000  -0.000000  -0.000000
   54  NE 1 ZZY   0.000000   0.000000   0.000000  -0.000000  -0.000000
   55  NE 1 XYZ   0.000000   0.000000   0.000000  -0.000000  -0.000000
   56  NE 1  S    0.000001   0.000000   0.000000  -0.000000  -0.000000
   57  NE 1  S    0.000014   0.000000   0.000000  -0.000000  -0.000000
   58  NE 1  S   -0.000017   0.000000   0.000000  -0.000000  -0.000000
   59  NE 1  S    0.000042   0.000000   0.000000  -0.000000  -0.000000
   60  NE 1  S   -0.000059   0.000000   0.000000  -0.000000  -0.000000
   61  NE 1  S    0.000001   0.000000   0.000000  -0.000000  -0.000000
   62  NE 1  S    0.000090   0.000000   0.000000  -0.000000  -0.000000
   63  NE 1  S   -0.000012   0.000000   0.000000  -0.000000  -0.000000
   64  NE 1  S   -0.000136   0.000000   0.000000  -0.000000  -0.000000
   65  NE 1  S    0.000086   0.000000   0.000000  -0.000000  -0.000000
   66  NE 1  X    0.000000   0.000000   0.000000  -0.000000  -0.000000
   67  NE 1  Y    0.000000   0.000000   0.000000  -0.000000  -0.000000
   68  NE 1  Z    0.000000   0.000000   0.000000  -0.000000  -0.000000
   69  NE 1  X    0.000000   0.000000   0.000000  -0.000000  -0.000000
   70  NE 1  Y    0.000000   0.000000   0.000000  -0.000000  -0.000000
   71  NE 1  Z    0.000000   0.000000   0.000000  -0.000000  -0.000000
   72  NE 1  X    0.000000   0.000000   0.000000  -0.000000  -0.000000
   73  NE 1  Y    0.000000   0.000000   0.000000  -0.000000  -0.000000
   74  NE 1  Z    0.000000   0.000000   0.000000  -0.000000  -0.000000
   75  NE 1  X    0.000000   0.000000   0.000000  -0.000000  -0.000000
   76  NE 1  Y    0.000000   0.000000   0.000000  -0.000000  -0.000000
   77  NE 1  Z    0.000000   0.000000   0.000000  -0.000000  -0.000000
   78  NE 1  X    0.000000   0.000000   0.000000  -0.000000  -0.000000
   79  NE 1  Y    0.000000   0.000000   0.000000  -0.000000  -0.000000
   80  NE 1  Z    0.000000   0.000000   0.000000  -0.000000  -0.000000
   81  NE 1  X    0.000000   0.000000   0.000000  -0.000000  -0.000000
   82  NE 1  Y    0.000000   0.000000   0.000000  -0.000000  -0.000000
   83  NE 1  Z    0.000000   0.000000   0.000000  -0.000000  -0.000000
   84  NE 1  X    0.000000   0.000000   0.000000  -0.000000  -0.000000
   85  NE 1  Y    0.000000   0.000000   0.000000  -0.000000  -0.000000
   86  NE 1  Z    0.000000   0.000000   0.000000  -0.000000  -0.000000
   87  NE 1  X    0.000000   0.000000   0.000000  -0.000000  -0.000000
   88  NE 1  Y    0.000000   0.000000   0.000000  -0.000000  -0.000000
   89  NE 1  Z    0.000000   0.000000   0.000000  -0.000000  -0.000000
   90  NE 1  X    0.000000   0.000000   0.000000  -0.000000  -0.000000
   91  NE 1  Y    0.000000   0.000000   0.000000  -0.000000  -0.000000
   92  NE 1  Z    0.000000   0.000000   0.000000  -0.000000  -0.000000
   93  NE 1  X    0.000000   0.000000   0.000000  -0.000000  -0.000000
   94  NE 1  Y    0.000000   0.000000   0.000000  -0.000000  -0.000000
   95  NE 1  Z    0.000000   0.000000   0.000000  -0.000000  -0.000000
   96  NE 1 XX   -0.041401   0.000000   0.000000  -0.000000   0.071708
   97  NE 1 YY   -0.041401   0.000000   0.000000  -0.000000  -0.071708
   98  NE 1 ZZ    0.082802   0.000000   0.000000  -0.000000  -0.000000
   99  NE 1 XY    0.000000   0.000000   0.000000   0.082802  -0.000000
  100  NE 1 XZ    0.000000   0.000000   0.082802  -0.000000  -0.000000
  101  NE 1 YZ    0.000000   0.082802   0.000000  -0.000000  -0.000000
  102  NE 1 XX   -0.222512   0.000000   0.000000  -0.000000   0.385402
  103  NE 1 YY   -0.222512   0.000000   0.000000  -0.000000  -0.385402
  104  NE 1 ZZ    0.445025   0.000000   0.000000  -0.000000  -0.000000
  105  NE 1 XY    0.000000   0.000000   0.000000   0.445024  -0.000000
  106  NE 1 XZ    0.000000   0.000000   0.445025  -0.000000  -0.000000
  107  NE 1 YZ    0.000000   0.445025   0.000000  -0.000000  -0.000000
  108  NE 1 XX    0.667854   0.000000   0.000000  -0.000000  -1.156756
  109  NE 1 YY    0.667854   0.000000   0.000000  -0.000000   1.156756
  110  NE 1 ZZ   -1.335709   0.000000   0.000000  -0.000000  -0.000000
  111  NE 1 XY    0.000000   0.000000   0.000000  -1.335707  -0.000000
  112  NE 1 XZ    0.000000   0.000000  -1.335708  -0.000000  -0.000000
  113  NE 1 YZ    0.000000  -1.335708   0.000000  -0.000000  -0.000000
  114  NE 1 XX   -2.442508   0.000000   0.000000  -0.000000   4.230545
  115  NE 1 YY   -2.442508   0.000000   0.000000  -0.000000  -4.230545
  116  NE 1 ZZ    4.885016   0.000000   0.000000  -0.000000  -0.000000
  117  NE 1 XY    0.000000   0.000000   0.000000   4.885013  -0.000000
  118  NE 1 XZ    0.000000   0.000000   4.885016  -0.000000  -0.000000
  119  NE 1 YZ    0.000000   4.885016   0.000000  -0.000000  -0.000000
  120  NE 1 XX    6.702461   0.000000   0.000000  -0.000000 -11.609001
  121  NE 1 YY    6.702461   0.000000   0.000000  -0.000000  11.609001
  122  NE 1 ZZ  -13.404923   0.000000   0.000000  -0.000000  -0.000000
  123  NE 1 XY    0.000000   0.000000   0.000000 -13.404920  -0.000000
  124  NE 1 XZ    0.000000   0.000000 -13.404922  -0.000000  -0.000000
  125  NE 1 YZ    0.000000 -13.404922   0.000000  -0.000000  -0.000000
  126  NE 1 XX  -11.333624   0.000000   0.000000  -0.000000  19.630412
  127  NE 1 YY  -11.333624   0.000000   0.000000  -0.000000 -19.630412
  128  NE 1 ZZ   22.667247   0.000000   0.000000  -0.000000  -0.000000
  129  NE 1 XY    0.000000   0.000000   0.000000  22.667248  -0.000000
  130  NE 1 XZ    0.000000   0.000000  22.667247  -0.000000  -0.000000
  131  NE 1 YZ    0.000000  22.667247   0.000000  -0.000000  -0.000000
  132  NE 1 XX    7.567429   0.000000   0.000000  -0.000000 -13.107175
  133  NE 1 YY    7.567429   0.000000   0.000000  -0.000000  13.107175
  134  NE 1 ZZ  -15.134859   0.000000   0.000000  -0.000000  -0.000000
  135  NE 1 XY    0.000000   0.000000   0.000000 -15.134862  -0.000000
  136  NE 1 XZ    0.000000   0.000000 -15.134859  -0.000000  -0.000000
  137  NE 1 YZ    0.000000 -15.134859   0.000000  -0.000000  -0.000000
  138  NE 1 XX    8.201698   0.000000   0.000000  -0.000000 -14.205757
  139  NE 1 YY    8.201698   0.000000   0.000000  -0.000000  14.205757
  140  NE 1 ZZ  -16.403395   0.000000   0.000000  -0.000000  -0.000000
  141  NE 1 XY    0.000000   0.000000   0.000000 -16.403395  -0.000000
  142  NE 1 XZ    0.000000   0.000000 -16.403395  -0.000000  -0.000000
  143  NE 1 YZ    0.000000 -16.403395   0.000000  -0.000000  -0.000000
  144  NE 1 XX  -18.340862   0.000000   0.000000  -0.000000  31.767308
  145  NE 1 YY  -18.340862   0.000000   0.000000  -0.000000 -31.767308
  146  NE 1 ZZ   36.681724   0.000000   0.000000  -0.000000  -0.000000
  147  NE 1 XY    0.000000   0.000000   0.000000  36.681728  -0.000000
  148  NE 1 XZ    0.000000   0.000000  36.681725  -0.000000  -0.000000
  149  NE 1 YZ    0.000000  36.681725   0.000000  -0.000000  -0.000000
  150  NE 1 XX    9.558160   0.000000   0.000000  -0.000000 -16.555220
  151  NE 1 YY    9.558160   0.000000   0.000000  -0.000000  16.555220
  152  NE 1 ZZ  -19.116319   0.000000   0.000000  -0.000000  -0.000000
  153  NE 1 XY    0.000000   0.000000   0.000000 -19.116321  -0.000000
  154  NE 1 XZ    0.000000   0.000000 -19.116320  -0.000000  -0.000000
  155  NE 1 YZ    0.000000 -19.116320   0.000000  -0.000000  -0.000000

                     16         17         18         19         20
                    0.0396     0.0460     0.0460     0.0477     0.0726
                     B2         E          E          A1         A1  
    1  NE 1  S    0.000000   0.000000   0.000000  -0.005494  -0.000000
    2  NE 1  S    0.000000   0.000000   0.000000   0.027410  -0.000000
    3  NE 1  S    0.000000   0.000000   0.000000   0.002637   0.000000
    4  NE 1  S    0.000000   0.000000   0.000000   0.448054  -0.000000
    5  NE 1  S    0.000000   0.000000   0.000000  20.522650  -0.000004
    6  NE 1  X    0.000000  -0.031342   0.000000  -0.000000   0.000000
    7  NE 1  Y    0.000000   0.000000  -0.031342  -0.000000   0.000000
    8  NE 1  Z   -0.020970   0.000000   0.000000  -0.000000   0.000000
    9  NE 1  X    0.000000   0.017161   0.000000  -0.000000   0.000000
   10  NE 1  Y    0.000000   0.000000   0.017161  -0.000000   0.000000
   11  NE 1  Z   -0.013961   0.000000   0.000000  -0.000000   0.000000
   12  NE 1  X    0.000000   0.615450   0.000000  -0.000000   0.000000
   13  NE 1  Y    0.000000   0.000000   0.615450  -0.000000   0.000000
   14  NE 1  Z   -0.552745   0.000000   0.000000  -0.000000   0.000000
   15  NE 1  X    0.000000   2.322919   0.000000  -0.000000   0.000000
   16  NE 1  Y    0.000000   0.000000   2.322919  -0.000000   0.000000
   17  NE 1  Z   -9.219803   0.000000   0.000000  -0.000000   0.000000
   18  NE 1 XX    0.000000   0.000000   0.000000   0.000000  -0.000724
   19  NE 1 YY    0.000000   0.000000   0.000000   0.000000  -0.000724
   20  NE 1 ZZ    0.000000   0.000000   0.000000  -0.000000   0.001449
   21  NE 1 XY    0.000000   0.000000   0.000000  -0.000000   0.000000
   22  NE 1 XZ    0.000000   0.000000   0.000000  -0.000000   0.000000
   23  NE 1 YZ    0.000000   0.000000   0.000000  -0.000000   0.000000
   24  NE 1 XX    0.000000   0.000000   0.000000   0.000000   0.012862
   25  NE 1 YY    0.000000   0.000000   0.000000   0.000000   0.012862
   26  NE 1 ZZ    0.000000   0.000000   0.000000  -0.000001  -0.025725
   27  NE 1 XY    0.000000   0.000000   0.000000  -0.000000   0.000000
   28  NE 1 XZ    0.000000   0.000000   0.000000  -0.000000   0.000000
   29  NE 1 YZ    0.000000   0.000000   0.000000  -0.000000   0.000000
   30  NE 1 XX    0.000000   0.000000   0.000000   0.000004   0.204214
   31  NE 1 YY    0.000000   0.000000   0.000000   0.000004   0.204214
   32  NE 1 ZZ    0.000000   0.000000   0.000000  -0.000008  -0.408428
   33  NE 1 XY    0.000000   0.000000   0.000000  -0.000000   0.000000
   34  NE 1 XZ    0.000000   0.000000   0.000000  -0.000000   0.000000
   35  NE 1 YZ    0.000000   0.000000   0.000000  -0.000000   0.000000
   36  NE 1 XXX   0.000000   0.000000   0.000000  -0.000000   0.000000
   37  NE 1 YYY   0.000000   0.000000   0.000000  -0.000000   0.000000
   38  NE 1 ZZZ   0.000000   0.000000   0.000000  -0.000000   0.000000
   39  NE 1 XXY   0.000000   0.000000   0.000000  -0.000000   0.000000
   40  NE 1 XXZ  -0.000000   0.000000   0.000000  -0.000000   0.000000
   41  NE 1 YYX   0.000000   0.000000   0.000000  -0.000000   0.000000
   42  NE 1 YYZ  -0.000000   0.000000   0.000000  -0.000000   0.000000
   43  NE 1 ZZX   0.000000  -0.000000   0.000000  -0.000000   0.000000
   44  NE 1 ZZY   0.000000   0.000000  -0.000000  -0.000000   0.000000
   45  NE 1 XYZ   0.000000   0.000000   0.000000  -0.000000   0.000000
   46  NE 1 XXX   0.000000  -0.000000   0.000000  -0.000000   0.000000
   47  NE 1 YYY   0.000000   0.000000  -0.000000  -0.000000   0.000000
   48  NE 1 ZZZ  -0.000000   0.000000   0.000000  -0.000000   0.000000
   49  NE 1 XXY   0.000000   0.000000  -0.000000  -0.000000   0.000000
   50  NE 1 XXZ   0.000000   0.000000   0.000000  -0.000000   0.000000
   51  NE 1 YYX   0.000000  -0.000000   0.000000  -0.000000   0.000000
   52  NE 1 YYZ   0.000000   0.000000   0.000000  -0.000000   0.000000
   53  NE 1 ZZX   0.000000   0.000000   0.000000  -0.000000   0.000000
   54  NE 1 ZZY   0.000000   0.000000   0.000000  -0.000000   0.000000
   55  NE 1 XYZ   0.000000   0.000000   0.000000  -0.000000   0.000000
   56  NE 1  S    0.000000   0.000000   0.000000  -1.394169   0.000001
   57  NE 1  S    0.000000   0.000000   0.000000 -27.147346   0.000001
   58  NE 1  S    0.000000   0.000000   0.000000  23.561039   0.000026
   59  NE 1  S    0.000000   0.000000   0.000000 -43.956874  -0.000097
   60  NE 1  S    0.000000   0.000000   0.000000  45.170748   0.000163
   61  NE 1  S    0.000000   0.000000   0.000000  17.780679  -0.000006
   62  NE 1  S    0.000000   0.000000   0.000000 -72.328174  -0.000222
   63  NE 1  S    0.000000   0.000000   0.000000 -11.252745   0.000006
   64  NE 1  S    0.000000   0.000000   0.000000  99.038717   0.000295
   65  NE 1  S    0.000000   0.000000   0.000000 -50.855000  -0.000163
   66  NE 1  X    0.000000  -0.333385   0.000000  -0.000000   0.000000
   67  NE 1  Y    0.000000   0.000000  -0.333385  -0.000000   0.000000
   68  NE 1  Z    0.287437   0.000000   0.000000  -0.000000   0.000000
   69  NE 1  X    0.000000  -1.025309   0.000000  -0.000000   0.000000
   70  NE 1  Y    0.000000   0.000000  -1.025309  -0.000000   0.000000
   71  NE 1  Z    1.055362   0.000000   0.000000  -0.000000   0.000000
   72  NE 1  X    0.000000   0.796575   0.000000  -0.000000   0.000000
   73  NE 1  Y    0.000000   0.000000   0.796575  -0.000000   0.000000
   74  NE 1  Z    5.789222   0.000000   0.000000  -0.000000   0.000000
   75  NE 1  X    0.000000  -8.730555   0.000000  -0.000000   0.000000
   76  NE 1  Y    0.000000   0.000000  -8.730555  -0.000000   0.000000
   77  NE 1  Z   14.037937   0.000000   0.000000  -0.000000   0.000000
   78  NE 1  X    0.000000  13.789947   0.000000  -0.000000   0.000000
   79  NE 1  Y    0.000000   0.000000  13.789947  -0.000000   0.000000
   80  NE 1  Z  -40.524326   0.000000   0.000000  -0.000000   0.000000
   81  NE 1  X    0.000000  -4.132373   0.000000  -0.000000   0.000000
   82  NE 1  Y    0.000000   0.000000  -4.132373  -0.000000   0.000000
   83  NE 1  Z   66.717149   0.000000   0.000000  -0.000000   0.000000
   84  NE 1  X    0.000000 -15.775453   0.000000  -0.000000   0.000000
   85  NE 1  Y    0.000000   0.000000 -15.775453  -0.000000   0.000000
   86  NE 1  Z  -38.308376   0.000000   0.000000  -0.000000   0.000000
   87  NE 1  X    0.000000   6.488598   0.000000  -0.000000   0.000000
   88  NE 1  Y    0.000000   0.000000   6.488598  -0.000000   0.000000
   89  NE 1  Z  -54.251095   0.000000   0.000000  -0.000000   0.000000
   90  NE 1  X    0.000000  23.163559   0.000000  -0.000000   0.000000
   91  NE 1  Y    0.000000   0.000000  23.163559  -0.000000   0.000000
   92  NE 1  Z   98.388506   0.000000   0.000000  -0.000000   0.000000
   93  NE 1  X    0.000000 -16.841586   0.000000  -0.000000   0.000000
   94  NE 1  Y    0.000000   0.000000 -16.841586  -0.000000   0.000000
   95  NE 1  Z  -43.060134   0.000000   0.000000  -0.000000   0.000000
   96  NE 1 XX    0.000000   0.000000   0.000000  -0.000001  -0.070709
   97  NE 1 YY    0.000000   0.000000   0.000000  -0.000001  -0.070709
   98  NE 1 ZZ    0.000000   0.000000   0.000000   0.000003   0.141418
   99  NE 1 XY    0.000000   0.000000   0.000000  -0.000000   0.000000
  100  NE 1 XZ    0.000000   0.000000   0.000000  -0.000000   0.000000
  101  NE 1 YZ    0.000000   0.000000   0.000000  -0.000000   0.000000
  102  NE 1 XX    0.000000   0.000000   0.000000  -0.000006  -0.382521
  103  NE 1 YY    0.000000   0.000000   0.000000  -0.000006  -0.382521
  104  NE 1 ZZ    0.000000   0.000000   0.000000   0.000013   0.765043
  105  NE 1 XY    0.000000   0.000000   0.000000  -0.000000   0.000000
  106  NE 1 XZ    0.000000   0.000000   0.000000  -0.000000   0.000000
  107  NE 1 YZ    0.000000   0.000000   0.000000  -0.000000   0.000000
  108  NE 1 XX    0.000000   0.000000   0.000000   0.000010   1.154207
  109  NE 1 YY    0.000000   0.000000   0.000000   0.000010   1.154207
  110  NE 1 ZZ    0.000000   0.000000   0.000000  -0.000021  -2.308414
  111  NE 1 XY    0.000000   0.000000   0.000000  -0.000000   0.000000
  112  NE 1 XZ    0.000000   0.000000   0.000000  -0.000000   0.000000
  113  NE 1 YZ    0.000000   0.000000   0.000000  -0.000000   0.000000
  114  NE 1 XX    0.000000   0.000000   0.000000  -0.000013  -4.238610
  115  NE 1 YY    0.000000   0.000000   0.000000  -0.000013  -4.238610
  116  NE 1 ZZ    0.000000   0.000000   0.000000   0.000025   8.477219
  117  NE 1 XY    0.000000   0.000000   0.000000  -0.000000   0.000000
  118  NE 1 XZ    0.000000   0.000000   0.000000  -0.000000   0.000000
  119  NE 1 YZ    0.000000   0.000000   0.000000  -0.000000   0.000000
  120  NE 1 XX    0.000000   0.000000   0.000000  -0.000004  11.618222
  121  NE 1 YY    0.000000   0.000000   0.000000  -0.000004  11.618222
  122  NE 1 ZZ    0.000000   0.000000   0.000000   0.000008 -23.236444
  123  NE 1 XY    0.000000   0.000000   0.000000  -0.000000   0.000000
  124  NE 1 XZ    0.000000   0.000000   0.000000  -0.000000   0.000000
  125  NE 1 YZ    0.000000   0.000000   0.000000  -0.000000   0.000000
  126  NE 1 XX    0.000000   0.000000   0.000000   0.000042 -19.408614
  127  NE 1 YY    0.000000   0.000000   0.000000   0.000042 -19.408614
  128  NE 1 ZZ    0.000000   0.000000   0.000000  -0.000085  38.817229
  129  NE 1 XY    0.000000   0.000000   0.000000  -0.000000   0.000000
  130  NE 1 XZ    0.000000   0.000000   0.000000  -0.000000   0.000000
  131  NE 1 YZ    0.000000   0.000000   0.000000  -0.000000   0.000000
  132  NE 1 XX    0.000000   0.000000   0.000000  -0.000043  12.231475
  133  NE 1 YY    0.000000   0.000000   0.000000  -0.000043  12.231475
  134  NE 1 ZZ    0.000000   0.000000   0.000000   0.000086 -24.462950
  135  NE 1 XY    0.000000   0.000000   0.000000  -0.000000   0.000000
  136  NE 1 XZ    0.000000   0.000000   0.000000  -0.000000   0.000000
  137  NE 1 YZ    0.000000   0.000000   0.000000  -0.000000   0.000000
  138  NE 1 XX    0.000000   0.000000   0.000000  -0.000030  14.747102
  139  NE 1 YY    0.000000   0.000000   0.000000  -0.000030  14.747102
  140  NE 1 ZZ    0.000000   0.000000   0.000000   0.000060 -29.494203
  141  NE 1 XY    0.000000   0.000000   0.000000  -0.000000   0.000000
  142  NE 1 XZ    0.000000   0.000000   0.000000  -0.000000   0.000000
  143  NE 1 YZ    0.000000   0.000000   0.000000  -0.000000   0.000000
  144  NE 1 XX    0.000000   0.000000   0.000000   0.000078 -29.477266
  145  NE 1 YY    0.000000   0.000000   0.000000   0.000078 -29.477266
  146  NE 1 ZZ    0.000000   0.000000   0.000000  -0.000156  58.954531
  147  NE 1 XY    0.000000   0.000000   0.000000  -0.000000   0.000000
  148  NE 1 XZ    0.000000   0.000000   0.000000  -0.000000   0.000000
  149  NE 1 YZ    0.000000   0.000000   0.000000  -0.000000   0.000000
  150  NE 1 XX    0.000000   0.000000   0.000000  -0.000036  13.418925
  151  NE 1 YY    0.000000   0.000000   0.000000  -0.000036  13.418925
  152  NE 1 ZZ    0.000000   0.000000   0.000000   0.000072 -26.837850
  153  NE 1 XY    0.000000   0.000000   0.000000  -0.000000   0.000000
  154  NE 1 XZ    0.000000   0.000000   0.000000  -0.000000   0.000000
  155  NE 1 YZ    0.000000   0.000000   0.000000  -0.000000   0.000000

                     21         22         23         24         25
                    0.0726     0.0726     0.0726     0.0726     0.0835
                     E          E          B2         B1         B2  
    1  NE 1  S    0.000000   0.000000  -0.000000  -0.000000   0.000000
    2  NE 1  S    0.000000   0.000000  -0.000000  -0.000000   0.000000
    3  NE 1  S    0.000000   0.000000  -0.000000  -0.000000   0.000000
    4  NE 1  S    0.000000   0.000000  -0.000000  -0.000000   0.000000
    5  NE 1  S    0.000000   0.000000  -0.000000  -0.000000   0.000000
    6  NE 1  X    0.000000   0.000000  -0.000000  -0.000000   0.000000
    7  NE 1  Y    0.000000   0.000000  -0.000000  -0.000000   0.000000
    8  NE 1  Z    0.000000   0.000000  -0.000000  -0.000000   0.050237
    9  NE 1  X    0.000000   0.000000  -0.000000  -0.000000   0.000000
   10  NE 1  Y    0.000000   0.000000  -0.000000  -0.000000   0.000000
   11  NE 1  Z    0.000000   0.000000  -0.000000  -0.000000  -0.022026
   12  NE 1  X    0.000000   0.000000  -0.000000  -0.000000   0.000000
   13  NE 1  Y    0.000000   0.000000  -0.000000  -0.000000   0.000000
   14  NE 1  Z    0.000000   0.000000  -0.000000  -0.000000  -0.868313
   15  NE 1  X    0.000000   0.000000  -0.000000  -0.000000   0.000000
   16  NE 1  Y    0.000000   0.000000  -0.000000  -0.000000   0.000000
   17  NE 1  Z    0.000000   0.000000  -0.000000  -0.000000 -14.247700
   18  NE 1 XX    0.000000   0.000000  -0.000000   0.001254   0.000000
   19  NE 1 YY    0.000000   0.000000  -0.000000  -0.001254   0.000000
   20  NE 1 ZZ    0.000000   0.000000  -0.000000  -0.000000   0.000000
   21  NE 1 XY    0.000000   0.000000   0.001449  -0.000000   0.000000
   22  NE 1 XZ    0.000000   0.001449  -0.000000  -0.000000   0.000000
   23  NE 1 YZ    0.001449   0.000000  -0.000000  -0.000000   0.000000
   24  NE 1 XX    0.000000   0.000000  -0.000000  -0.022278   0.000000
   25  NE 1 YY    0.000000   0.000000  -0.000000   0.022278   0.000000
   26  NE 1 ZZ    0.000000   0.000000  -0.000000  -0.000000   0.000000
   27  NE 1 XY    0.000000   0.000000  -0.025725  -0.000000   0.000000
   28  NE 1 XZ    0.000000  -0.025725  -0.000000  -0.000000   0.000000
   29  NE 1 YZ   -0.025725   0.000000  -0.000000  -0.000000   0.000000
   30  NE 1 XX    0.000000   0.000000  -0.000000  -0.353711   0.000000
[...]
   95  NE 1  Z    0.000000   0.000000   0.000000   0.000000   0.000000
   96  NE 1 XX    0.000000   0.000000   0.000000   0.000000   0.000000
   97  NE 1 YY    0.000000   0.000000   0.000000   0.000000   0.000000
   98  NE 1 ZZ    0.000000   0.000000   0.000000   0.000000   0.000000
   99  NE 1 XY    0.000000   0.000000   0.000000   0.000000   0.000000
  100  NE 1 XZ    0.000000   0.000000   0.000000   0.000000   0.000000
  101  NE 1 YZ    0.000000   0.000000   0.000000   0.000000   0.000000
  102  NE 1 XX    0.000000   0.000000   0.000000   0.000000   0.000000
  103  NE 1 YY    0.000000   0.000000   0.000000   0.000000   0.000000
  104  NE 1 ZZ    0.000000   0.000000   0.000000   0.000000   0.000000
  105  NE 1 XY    0.000000   0.000000   0.000000   0.000000   0.000000
  106  NE 1 XZ    0.000000   0.000000   0.000000   0.000000   0.000000
  107  NE 1 YZ    0.000000   0.000000   0.000000   0.000000   0.000000
  108  NE 1 XX    0.000000   0.000000   0.000000   0.000000   0.000000
  109  NE 1 YY    0.000000   0.000000   0.000000   0.000000   0.000000
  110  NE 1 ZZ    0.000000   0.000000   0.000000   0.000000   0.000000
  111  NE 1 XY    0.000000   0.000000   0.000000   0.000000   0.000000
  112  NE 1 XZ    0.000000   0.000000   0.000000   0.000000   0.000000
  113  NE 1 YZ    0.000000   0.000000   0.000000   0.000000   0.000000
  114  NE 1 XX    0.000000   0.000000   0.000000   0.000000   0.000000
  115  NE 1 YY    0.000000   0.000000   0.000000   0.000000   0.000000
  116  NE 1 ZZ    0.000000   0.000000   0.000000   0.000000   0.000000
  117  NE 1 XY    0.000000   0.000000   0.000000   0.000000   0.000000
  118  NE 1 XZ    0.000000   0.000000   0.000000   0.000000   0.000000
  119  NE 1 YZ    0.000000   0.000000   0.000000   0.000000   0.000000
  120  NE 1 XX    0.000000   0.000000   0.000000   0.000000   0.000000
  121  NE 1 YY    0.000000   0.000000   0.000000   0.000000   0.000000
  122  NE 1 ZZ    0.000000   0.000000   0.000000   0.000000   0.000000
  123  NE 1 XY    0.000000   0.000000   0.000000   0.000000   0.000000
  124  NE 1 XZ    0.000000   0.000000   0.000000   0.000000   0.000000
  125  NE 1 YZ    0.000000   0.000000   0.000000   0.000000   0.000000
  126  NE 1 XX    0.000000   0.000000   0.000000   0.000000   0.000000
  127  NE 1 YY    0.000000   0.000000   0.000000   0.000000   0.000000
  128  NE 1 ZZ    0.000000   0.000000   0.000000   0.000000   0.000000
  129  NE 1 XY    0.000000   0.000000   0.000000   0.000000   0.000000
  130  NE 1 XZ    0.000000   0.000000   0.000000   0.000000   0.000000
  131  NE 1 YZ    0.000000   0.000000   0.000000   0.000000   0.000000
  132  NE 1 XX    0.000000   0.000000   0.000000   0.000000   0.000000
  133  NE 1 YY    0.000000   0.000000   0.000000   0.000000   0.000000
  134  NE 1 ZZ    0.000000   0.000000   0.000000   0.000000   0.000000
  135  NE 1 XY    0.000000   0.000000   0.000000   0.000000   0.000000
  136  NE 1 XZ    0.000000   0.000000   0.000000   0.000000   0.000000
  137  NE 1 YZ    0.000000   0.000000   0.000000   0.000000   0.000000
  138  NE 1 XX    0.000000   0.000000   0.000000   0.000000   0.000000
  139  NE 1 YY    0.000000   0.000000   0.000000   0.000000   0.000000
  140  NE 1 ZZ    0.000000   0.000000   0.000000   0.000000   0.000000
  141  NE 1 XY    0.000000   0.000000   0.000000   0.000000   0.000000
  142  NE 1 XZ    0.000000   0.000000   0.000000   0.000000   0.000000
  143  NE 1 YZ    0.000000   0.000000   0.000000   0.000000   0.000000
  144  NE 1 XX    0.000000   0.000000   0.000000   0.000000   0.000000
  145  NE 1 YY    0.000000   0.000000   0.000000   0.000000   0.000000
  146  NE 1 ZZ    0.000000   0.000000   0.000000   0.000000   0.000000
  147  NE 1 XY    0.000000   0.000000   0.000000   0.000000   0.000000
  148  NE 1 XZ    0.000000   0.000000   0.000000   0.000000   0.000000
  149  NE 1 YZ    0.000000   0.000000   0.000000   0.000000   0.000000
  150  NE 1 XX    0.000000   0.000000   0.000000   0.000000   0.000000
  151  NE 1 YY    0.000000   0.000000   0.000000   0.000000   0.000000
  152  NE 1 ZZ    0.000000   0.000000   0.000000   0.000000   0.000000
  153  NE 1 XY    0.000000   0.000000   0.000000   0.000000   0.000000
  154  NE 1 XZ    0.000000   0.000000   0.000000   0.000000   0.000000
  155  NE 1 YZ    0.000000   0.000000   0.000000   0.000000   0.000000

                    121

                   -0.1890

    1  NE 1  S    0.000000
    2  NE 1  S    0.000000
    3  NE 1  S    0.000000
    4  NE 1  S    0.000000
    5  NE 1  S    0.000000
    6  NE 1  X    0.000000
    7  NE 1  Y    0.000000
    8  NE 1  Z    0.000000
    9  NE 1  X    0.000000
   10  NE 1  Y    0.000000
   11  NE 1  Z    0.000000
   12  NE 1  X    0.000000
   13  NE 1  Y    0.000000
   14  NE 1  Z    0.000000
   15  NE 1  X    0.000000
   16  NE 1  Y    0.000000
   17  NE 1  Z    0.000000
   18  NE 1 XX    0.000000
   19  NE 1 YY    0.000000
   20  NE 1 ZZ    0.000000
   21  NE 1 XY    0.000000
   22  NE 1 XZ    0.000000
   23  NE 1 YZ    0.000000
   24  NE 1 XX    0.000000
   25  NE 1 YY    0.000000
   26  NE 1 ZZ    0.000000
   27  NE 1 XY    0.000000
   28  NE 1 XZ    0.000000
   29  NE 1 YZ    0.000000
   30  NE 1 XX    0.000000
   31  NE 1 YY    0.000000
   32  NE 1 ZZ    0.000000
   33  NE 1 XY    0.000000
   34  NE 1 XZ    0.000000
   35  NE 1 YZ    0.000000
   36  NE 1 XXX   0.000000
   37  NE 1 YYY   0.000000
   38  NE 1 ZZZ   0.000000
   39  NE 1 XXY   0.000000
   40  NE 1 XXZ   0.000000
   41  NE 1 YYX   0.000000
   42  NE 1 YYZ   0.000000
   43  NE 1 ZZX   0.000000
   44  NE 1 ZZY   0.000000
   45  NE 1 XYZ   0.000000
   46  NE 1 XXX   0.000000
   47  NE 1 YYY   0.000000
   48  NE 1 ZZZ   0.000000
   49  NE 1 XXY   0.000000
   50  NE 1 XXZ   0.000000
   51  NE 1 YYX   0.000000
   52  NE 1 YYZ   0.000000
   53  NE 1 ZZX   0.000000
   54  NE 1 ZZY   0.000000
   55  NE 1 XYZ   0.000000
   56  NE 1  S    0.000000
   57  NE 1  S    0.000000
   58  NE 1  S    0.000000
   59  NE 1  S    0.000000
   60  NE 1  S    0.000000
   61  NE 1  S    0.000000
   62  NE 1  S    0.000000
   63  NE 1  S    0.000000
   64  NE 1  S    0.000000
   65  NE 1  S    0.000000
   66  NE 1  X    0.000000
   67  NE 1  Y    0.000000
   68  NE 1  Z    0.000000
   69  NE 1  X    0.000000
   70  NE 1  Y    0.000000
   71  NE 1  Z    0.000000
   72  NE 1  X    0.000000
   73  NE 1  Y    0.000000
   74  NE 1  Z    0.000000
   75  NE 1  X    0.000000
   76  NE 1  Y    0.000000
   77  NE 1  Z    0.000000
   78  NE 1  X    0.000000
   79  NE 1  Y    0.000000
   80  NE 1  Z    0.000000
   81  NE 1  X    0.000000
   82  NE 1  Y    0.000000
   83  NE 1  Z    0.000000
   84  NE 1  X    0.000000
   85  NE 1  Y    0.000000
   86  NE 1  Z    0.000000
   87  NE 1  X    0.000000
   88  NE 1  Y    0.000000
   89  NE 1  Z    0.000000
   90  NE 1  X    0.000000
   91  NE 1  Y    0.000000
   92  NE 1  Z    0.000000
   93  NE 1  X    0.000000
   94  NE 1  Y    0.000000
   95  NE 1  Z    0.000000
   96  NE 1 XX    0.000000
   97  NE 1 YY    0.000000
   98  NE 1 ZZ    0.000000
   99  NE 1 XY    0.000000
  100  NE 1 XZ    0.000000
  101  NE 1 YZ    0.000000
  102  NE 1 XX    0.000000
  103  NE 1 YY    0.000000
  104  NE 1 ZZ    0.000000
  105  NE 1 XY    0.000000
  106  NE 1 XZ    0.000000
  107  NE 1 YZ    0.000000
  108  NE 1 XX    0.000000
  109  NE 1 YY    0.000000
  110  NE 1 ZZ    0.000000
  111  NE 1 XY    0.000000
  112  NE 1 XZ    0.000000
  113  NE 1 YZ    0.000000
  114  NE 1 XX    0.000000
  115  NE 1 YY    0.000000
  116  NE 1 ZZ    0.000000
  117  NE 1 XY    0.000000
  118  NE 1 XZ    0.000000
  119  NE 1 YZ    0.000000
  120  NE 1 XX    0.000000
  121  NE 1 YY    0.000000
  122  NE 1 ZZ    0.000000
  123  NE 1 XY    0.000000
  124  NE 1 XZ    0.000000
  125  NE 1 YZ    0.000000
  126  NE 1 XX    0.000000
  127  NE 1 YY    0.000000
  128  NE 1 ZZ    0.000000
  129  NE 1 XY    0.000000
  130  NE 1 XZ    0.000000
  131  NE 1 YZ    0.000000
  132  NE 1 XX    0.000000
  133  NE 1 YY    0.000000
  134  NE 1 ZZ    0.000000
  135  NE 1 XY    0.000000
  136  NE 1 XZ    0.000000
  137  NE 1 YZ    0.000000
  138  NE 1 XX    0.000000
  139  NE 1 YY    0.000000
  140  NE 1 ZZ    0.000000
  141  NE 1 XY    0.000000
  142  NE 1 XZ    0.000000
  143  NE 1 YZ    0.000000
  144  NE 1 XX    0.000000
  145  NE 1 YY    0.000000
  146  NE 1 ZZ    0.000000
  147  NE 1 XY    0.000000
  148  NE 1 XZ    0.000000
  149  NE 1 YZ    0.000000
  150  NE 1 XX    0.000000
  151  NE 1 YY    0.000000
  152  NE 1 ZZ    0.000000
  153  NE 1 XY    0.000000
  154  NE 1 XZ    0.000000
  155  NE 1 YZ    0.000000

 THE CIS NATURAL ORBITALS HAVE BEEN PUNCHED.

 .... DONE WITH CIS ENERGY + 1-PARTICLE DENSITY ....

 STEP CPU TIME =   470.10 TOTAL CPU TIME =        519.0 (      8.7 MIN)
 TOTAL WALL CLOCK TIME=        436.1 SECONDS, CPU UTILIZATION IS   119.02%

     -------------------------------------------------------------
     CIS   PROPERTIES...FOR THE WAVEFUNCTION OF EXCITED STATE    2
               USING THE RESPONSE (OR RELAXED) DENSITY
     -------------------------------------------------------------

          -----------------
          ENERGY COMPONENTS
          -----------------

         WAVEFUNCTION NORMALIZATION =       1.0000000000

                ONE ELECTRON ENERGY =    -177.9354119643
                TWO ELECTRON ENERGY =      50.0622374830
           NUCLEAR REPULSION ENERGY =       0.0000000000
                                      ------------------
                       TOTAL ENERGY =    -127.8731744813

 ELECTRON-ELECTRON POTENTIAL ENERGY =      50.0622374830
  NUCLEUS-ELECTRON POTENTIAL ENERGY =    -305.7644807258
   NUCLEUS-NUCLEUS POTENTIAL ENERGY =       0.0000000000
                                      ------------------
             TOTAL POTENTIAL ENERGY =    -255.7022432428
               TOTAL KINETIC ENERGY =     127.8290687615
                 VIRIAL RATIO (V/T) =       2.0003450367

          ---------------------------------------
          MULLIKEN AND LOWDIN POPULATION ANALYSES
          ---------------------------------------

               ----- POPULATIONS IN EACH AO -----
                             MULLIKEN      LOWDIN
              1  NE 1  S      1.99702         NaN
              2  NE 1  S      2.08721         NaN
              3  NE 1  S      0.01353         NaN
              4  NE 1  S      0.01566         NaN
              5  NE 1  S     -0.98481         NaN
              6  NE 1  X      1.09409         NaN
              7  NE 1  Y      2.11317         NaN
              8  NE 1  Z      2.18878         NaN
              9  NE 1  X      0.00846         NaN
             10  NE 1  Y     -0.02712         NaN
             11  NE 1  Z     -0.02745         NaN
             12  NE 1  X     -0.02217         NaN
             13  NE 1  Y     -0.07465         NaN
             14  NE 1  Z     -0.02660         NaN
             15  NE 1  X      0.04084         NaN
             16  NE 1  Y      0.06415         NaN
             17  NE 1  Z      0.17526         NaN
             18  NE 1 XX      0.00000         NaN
             19  NE 1 YY      0.00000         NaN
             20  NE 1 ZZ      0.00000         NaN
             21  NE 1 XY      0.00000         NaN
             22  NE 1 XZ      0.00000         NaN
             23  NE 1 YZ      0.00000         NaN
             24  NE 1 XX     -0.00001         NaN
             25  NE 1 YY     -0.00002         NaN
             26  NE 1 ZZ     -0.00002         NaN
             27  NE 1 XY     -0.00001         NaN
             28  NE 1 XZ     -0.00000         NaN
             29  NE 1 YZ      0.00000         NaN
             30  NE 1 XX     -0.00002         NaN
             31  NE 1 YY     -0.00006         NaN
             32  NE 1 ZZ     -0.00006         NaN
             33  NE 1 XY     -0.00005         NaN
             34  NE 1 XZ     -0.00000         NaN
             35  NE 1 YZ      0.00000         NaN
             36  NE 1 XXX     0.00000         NaN
             37  NE 1 YYY     0.00000         NaN
             38  NE 1 ZZZ     0.00000         NaN
             39  NE 1 XXY     0.00000         NaN
             40  NE 1 XXZ     0.00000         NaN
             41  NE 1 YYX     0.00000         NaN
             42  NE 1 YYZ     0.00000         NaN
             43  NE 1 ZZX     0.00000         NaN
             44  NE 1 ZZY     0.00000         NaN
             45  NE 1 XYZ     0.00000         NaN
             46  NE 1 XXX     0.00000         NaN
             47  NE 1 YYY     0.00000         NaN
             48  NE 1 ZZZ     0.00000         NaN
             49  NE 1 XXY     0.00000         NaN
             50  NE 1 XXZ     0.00000         NaN
             51  NE 1 YYX     0.00000         NaN
             52  NE 1 YYZ     0.00000         NaN
             53  NE 1 ZZX     0.00000         NaN
             54  NE 1 ZZY     0.00000         NaN
             55  NE 1 XYZ     0.00000         NaN
             56  NE 1  S     -0.12084         NaN
             57  NE 1  S      1.42362         NaN
             58  NE 1  S     -0.18634         NaN
             59  NE 1  S      0.66968         NaN
             60  NE 1  S      0.34648         NaN
             61  NE 1  S     -0.71703         NaN
             62  NE 1  S      0.40850         NaN
             63  NE 1  S      0.45370         NaN
             64  NE 1  S     -0.61595         NaN
             65  NE 1  S      0.20565         NaN
             66  NE 1  X      0.02418         NaN
             67  NE 1  Y      0.01728         NaN
             68  NE 1  Z     -0.01580         NaN
             69  NE 1  X     -0.07542         NaN
             70  NE 1  Y     -0.15293         NaN
             71  NE 1  Z     -0.21124         NaN
             72  NE 1  X      0.03132         NaN
             73  NE 1  Y      0.04903         NaN
             74  NE 1  Z      0.02758         NaN
             75  NE 1  X     -0.05578         NaN
             76  NE 1  Y     -0.08840         NaN
             77  NE 1  Z     -0.24081         NaN
             78  NE 1  X      0.02371         NaN
             79  NE 1  Y      0.03572         NaN
             80  NE 1  Z      0.23235         NaN
             81  NE 1  X      0.00856         NaN
             82  NE 1  Y      0.01321         NaN
             83  NE 1  Z     -0.13285         NaN
             84  NE 1  X     -0.01251         NaN
             85  NE 1  Y     -0.01840         NaN
             86  NE 1  Z     -0.00022         NaN
             87  NE 1  X     -0.00241         NaN
             88  NE 1  Y     -0.00367         NaN
             89  NE 1  Z      0.06519         NaN
             90  NE 1  X      0.00794         NaN
             91  NE 1  Y      0.01146         NaN
             92  NE 1  Z     -0.04546         NaN
             93  NE 1  X     -0.00286         NaN
             94  NE 1  Y     -0.00406         NaN
             95  NE 1  Z      0.01077         NaN
             96  NE 1 XX      0.00002         NaN
             97  NE 1 YY      0.00006         NaN
             98  NE 1 ZZ      0.00006         NaN
             99  NE 1 XY      0.00006         NaN
            100  NE 1 XZ      0.00000         NaN
            101  NE 1 YZ      0.00000         NaN
            102  NE 1 XX      0.00008         NaN
            103  NE 1 YY      0.00023         NaN
            104  NE 1 ZZ      0.00023         NaN
            105  NE 1 XY      0.00021         NaN
            106  NE 1 XZ      0.00001         NaN
            107  NE 1 YZ      0.00000         NaN
            108  NE 1 XX      0.00000         NaN
            109  NE 1 YY      0.00001         NaN
            110  NE 1 ZZ      0.00001         NaN
            111  NE 1 XY      0.00001         NaN
            112  NE 1 XZ      0.00000         NaN
            113  NE 1 YZ      0.00000         NaN
            114  NE 1 XX      0.00012         NaN
            115  NE 1 YY      0.00035         NaN
            116  NE 1 ZZ      0.00035         NaN
            117  NE 1 XY      0.00033         NaN
            118  NE 1 XZ      0.00002         NaN
            119  NE 1 YZ      0.00000         NaN
            120  NE 1 XX     -0.00010         NaN
            121  NE 1 YY     -0.00029         NaN
            122  NE 1 ZZ     -0.00029         NaN
            123  NE 1 XY     -0.00027         NaN
            124  NE 1 XZ     -0.00002         NaN
            125  NE 1 YZ      0.00000         NaN
            126  NE 1 XX      0.00010         NaN
            127  NE 1 YY      0.00030         NaN
            128  NE 1 ZZ      0.00030         NaN
            129  NE 1 XY      0.00028         NaN
            130  NE 1 XZ      0.00002         NaN
            131  NE 1 YZ      0.00000         NaN
            132  NE 1 XX     -0.00001         NaN
            133  NE 1 YY     -0.00002         NaN
            134  NE 1 ZZ     -0.00002         NaN
            135  NE 1 XY     -0.00002         NaN
            136  NE 1 XZ     -0.00000         NaN
            137  NE 1 YZ      0.00000         NaN
            138  NE 1 XX     -0.00005         NaN
            139  NE 1 YY     -0.00016         NaN
            140  NE 1 ZZ     -0.00016         NaN
            141  NE 1 XY     -0.00015         NaN
            142  NE 1 XZ     -0.00001         NaN
            143  NE 1 YZ      0.00000         NaN
            144  NE 1 XX      0.00005         NaN
            145  NE 1 YY      0.00014         NaN
            146  NE 1 ZZ      0.00014         NaN
            147  NE 1 XY      0.00013         NaN
            148  NE 1 XZ      0.00001         NaN
            149  NE 1 YZ      0.00000         NaN
            150  NE 1 XX     -0.00001         NaN
            151  NE 1 YY     -0.00004         NaN
            152  NE 1 ZZ     -0.00004         NaN
            153  NE 1 XY     -0.00003         NaN
            154  NE 1 XZ     -0.00000         NaN
            155  NE 1 YZ      0.00000         NaN

          ----- MULLIKEN ATOMIC OVERLAP POPULATIONS -----
          (OFF-DIAGONAL ELEMENTS NEED TO BE MULTIPLIED BY 2)

             1

    1   10.0000000

          TOTAL MULLIKEN AND LOWDIN ATOMIC POPULATIONS
       ATOM         MULL.POP.    CHARGE          LOW.POP.     CHARGE
    1 NE           10.000000   -0.000000              NaN         NaN

          MULLIKEN SPHERICAL HARMONIC POPULATIONS
       ATOM           S       P       D      F      G      H      I    TOTAL
    1 NE            5.00    5.00    0.00   0.00   0.00   0.00   0.00   10.00

          ---------------------
          ELECTROSTATIC MOMENTS
          ---------------------

 POINT   1           X           Y           Z (BOHR)    CHARGE
                 0.000000    0.000000    0.000000       -0.00 (A.U.)
         DX          DY          DZ         /D/  (DEBYE)
     0.000000   -0.000000    0.000000    0.000000
 ...... END OF PROPERTY EVALUATION ......
 STEP CPU TIME =     0.17 TOTAL CPU TIME =        519.2 (      8.7 MIN)
 TOTAL WALL CLOCK TIME=        436.1 SECONDS, CPU UTILIZATION IS   119.05%
             22683518  WORDS OF DYNAMIC MEMORY USED
 EXECUTION OF GAMESS TERMINATED NORMALLY Mon Nov  9 09:07:22 2020

          This is a threaded run. In some cases not all
          threaded components in GAMESS will saturate the
          total number of available threads on your system or
          set by OMP_NUM_THREADS

 DDI: 263640 bytes (0.3 MB / 0 MWords) used by master data server.

 ----------------------------------------
 CPU timing information for all processes
 ========================================
 0: 504.278 + 15.242 = 519.520
 ----------------------------------------
 ddikick.x: exited gracefully.
----- accounting info -----
Files used on the master node 3b3cda2d69c0 were:
-rw-r--r-- 1 gamess gamess    3525 Nov  9 08:59 /tmp/ne-cis.F05
-rw-r--r-- 1 gamess gamess 3533760 Nov  9 09:07 /tmp/ne-cis.F10
-rw-r--r-- 1 gamess gamess  928800 Nov  9 09:07 /tmp/ne-cis.F12
Mon Nov  9 09:07:25 UTC 2020
20.9u 12.4s 7:52.39 7.0% 0+0k 4072+8io 18pf+0w
