----- GAMESS execution script 'rungms' -----
This job is running on host 56a39d0d66cd
under operating system Linux at Mon Nov 16 05:24:36 UTC 2020
Available scratch disk space (Kbyte units) at beginning of the job is
Filesystem     1K-blocks     Used Available Use% Mounted on
overlay         65789484 21617116  40800748  35% /
GAMESS temporary binary files will be written to /tmp
GAMESS supplementary output files will be written to /home/gamess/.gamess
Copying input file ./water.inp to your run's scratch directory...

 Distributed Data Interface kickoff program.
 Initiating 1 compute processes on 1 nodes to run the following command:
 /gamess/gamess.00.x water 

          *******************************************************
          *                                                     *
          *          GAMESS VERSION = 30 SEP 2020 (R2)          *
          *                                                     *
          *              doi.org/10.1063/5.0005188              *
          *                                                     *
          **************** 64 BIT LINUX VERSION *****************

  GAMESS HAS BEEN MADE POSSIBLE WITH IMPORTANT CONTRIBUTIONS FROM
  THE FOLLOWING INDIVIDUALS (IN ALPHABETICAL ORDER):

     IVANA ADAMOVIC, CHRISTINE AIKENS, TOMOKO AKAMA,
     YURI ALEXEEV, YURIKO AOKI, POOJA ARORA, TOSHIO ASADA,
     ANDREY ASADCHEV, KIM K. BALDRIDGE, PRADIPTA BANDYOPADHYAY,
     MARIA BARYSZ, ROB BELL, JONATHAN BENTZ, COLLEEN BERTONI,
     JERRY A. BOATZ, BRETT BODE, KURT BRORSEN, KURT R. BRORSEN,
     LAIMUTIS BYTAUTAS, CALEB CARLIN, LAURA CARRINGTON,
     GALINA CHABAN, BENOIT CHAMPAGNE, WEI CHEN, MAHITO CHIBA,
     DAN CHIPMAN, CHEOL HO CHOI, TANNER CULPITT,
     DIPAYAN DATTA, PAUL DAY, ALBERT DEFUSCO,
     NUWAN DESILVA, J. EMILIANO DEUSTUA,
     TIM DUDLEY, MICHEL DUPUIS, STEVEN T. ELBERT,
     DMITRI FEDOROV, ALEX FINDLATER, GRAHAM FLETCHER,
     MARK FREITAG, CHRISTIAN FRIEDL, DAVID GARMER,
     IGOR S. GERASIMOV, KURT GLAESEMANN, MARK S. GORDON,
     JEFFREY GOUR, FENG LONG GU, EMILIE B. GUIDEZ,
     ANASTASIA GUNINA, SHARON HAMMES-SCHIFFER, MASATAKE HARUTA,
     KIMIHIKO HIRAO, YASUHIRO IKABATA, TZVETELIN IORDANOV,
     STEPHAN IRLE, KAZUYA ISHIMURA, JOE IVANIC, FRANK JENSEN,
     JAN H. JENSEN, VISVALDAS KAIRYS, MUNEAKI KAMIYA,
     MICHIO KATOUDA, NAOAKI KAWAKAMI, DAN KEMP, BERNARD KIRTMAN,
     KAZUO KITAURA, MARIUSZ KLOBUKOWSKI, MASATO KOBAYASHI,
     PRAKASHAN KORAMBATH, JACEK KORCHOWIEC, SHIRO KOSEKI,
     KAROL KOWALSKI, JIMMY KROMANN, STANISLAW KUCHARSKI,
     HENRY KURTZ, SAROM SOK LEANG, HUI LI, SHUHUA LI, WEI LI,
     JESSE LUTZ, ALEKSANDR O. LYKHIN, MARCIN MAKOWSKI,
     JOANI MATO, NIKITA MATSUNAGA, BENEDETTA MENNUCCI,
     GRANT MERRILL, NORIYUKI MINEZAWA, VLADIMIR MIRONOV,
     EISAKU MIYOSHI, JOHN A. MONTGOMERY JR., HIROTOSHI MORI,
     JONATHAN MULLIN, MONIKA MUSIAL, SHIGERU NAGASE,
     TAKESHI NAGATA, HIROMI NAKAI, TAKAHITO NAKAJIMA,
     YUYA NAKAJIMA, HARUYUKI NAKANO, HIROYA NAKATA, SEAN NEDD,
     HEATHER NETZLOFF, KIET A. NGUYEN, YOSHIO NISHIMOTO,
     BOSILJKA NJEGIC, RYAN OLSON, MIKE PAK, ROBERTO PEVERATI,
     BUU PHAM, PIOTR PIECUCH, ANNA POMOGAEVA, DAVID POOLE,
     SPENCER PRUITT, OLIVIER QUINET, LUKE ROSKOP,
     KLAUS RUEDENBERG, ANDREW SAND, TOSAPORN SATTASATHUCHANA,
     NOZOMI SAWADA, MICHAEL W. SCHMIDT, PATRICK E. SCHNEIDER,
     JUNJI SEINO, PRACHI SHARMA, JUN SHEN, JIM SHOEMAKER,
     YINAN SHU, DEJUN SI, JONATHAN SKONE, LYUDMILA SLIPCHENKO,
     TONY SMITH, JIE SONG, MARK SPACKMAN, CASPER STEINMANN,
     WALT STEVENS, PEIFENG SU, SHUJUN SU, CHET SWALINA,
     TETSUYA TAKETSUGU, ZHEN TAO, NANDUN THELLAMUREGE
     SEIKEN TOKURA, JACOPO TOMASI, TSUGUKI TOUMA, TAKAO TSUNEDA,
     HIROAKI UMEDA, JORGE LUIS GALVEZ VALLEJO, YALI WANG,
     SIMON WEBB, AARON WEST, THERESA L. WINDUS, MARTA WLOCH,
     PENG XU, KIYOSHI YAGI, SUSUMU YANAGISAWA, YANG YANG,
     SOOHAENG YOO, TAKESHI YOSHIKAWA, FEDERICO ZAHARIEV,
     TOBY ZENG

  WHO ARE SUPPORTED BY THEIR INSTITUTION/UNIVERSITY/COMPANY/GROUP
  (IN ALPHABETICAL ORDER):

     EP ANALYTICS, FACULTES UNIVERSITAIRES NOTRE-DAME DE LA PAIX,
     INSTITUTE FOR MOLECULAR SCIENCE, IOWA STATE UNIVERSITY,
     JACKSON STATE UNIVERSITY, JOHANNES KEPLER UNIVERSITY LINZ,
     KYUSHU UNIVERSITY, MICHIGAN STATE UNIVERSITY,
     MIE UNIVERSITY, MOSCOW STATE UNIVERSITY,
     N. COPERNICUS UNIVERSITY, NAGOYA UNIVERSITY,
     NANJING UNIVERSITY, NAT. INST. OF ADVANCED INDUSTRIAL
     SCIENCE AND TECHNOLOGY, NATIONAL INST. OF STANDARDS AND
     TECHNOLOGY, NESMEYANOV INSTITUTE OF ORGANOELEMENT COMPOUNDS
     OF RUSSIAN ACADEMY OF SCIENCES, OSAKA PREFECTURE UNIVERSITY,
     PENNSYLVANIA STATE UNIVERSITY, TOKYO INSTITUTE OF TECHNOLOGY,
     UNIVERSITY OF AARHUS, UNIVERSITY OF ALBERTA,
     UNIVERSITY OF CALIFORNIA AT SANTA BARBARA,
     UNIVERSITY OF COPENHAGEN, UNIVERSITY OF IOWA,
     UNIVERSITY OF MEMPHIS, UNIVERSITY OF MINNESOTA,
     UNIVERSITY OF NEBRASKA, UNIVERSITY OF NEW ENGLAND,
     UNIVERSITY OF NOTRE DAME, UNIVERSITY OF PISA,
     UNIVERSITY OF SILESIA, UNIVERSITY OF TOKYO,
     UNIVERSITY OF ZURICH, WASEDA UNIVERSITY, YALE UNIVERSITY

  GAMESS SOFTWARE MANAGEMENT TEAM FOR THIS RELEASE:
     MARK S. GORDON (TEAM LEAD),
     BRETT BODE (SENIOR ADVISOR),
     GIUSEPPE BARCA,
     COLLEEN BERTONI,
     KRISTOPHER KEIPERT (ADVISOR),
     SAROM S. LEANG (DEVELOPMENT LEAD),
     BUU PHAM,
     JORGE LUIS GALVEZ VALLEJO (WEBSITE ADMINISTRATOR),
     PENG XU

 EXECUTION OF GAMESS BEGUN 05:25:01 16-NOV-2020    

            ECHO OF THE FIRST FEW INPUT CARDS -
 INPUT CARD> $CONTRL SCFTYP=RHF MPLEVL=0 CITYP=CIS RUNTYP=ENERGY NPRINT=3 NPRINT=3 $END     
 INPUT CARD> $SYSTEM TIMLIM=1 MEMDDI=1 PARALL=.TRUE. $END                                   
 INPUT CARD> $BASIS  GBASIS=N21 NGAUSS=3 $END                                               
 INPUT CARD> $GUESS  GUESS=HUCKEL $END                                                      
 INPUT CARD> $CIS    NACORE=0 NSTATE=100 HAMTYP=DETS CISPRP=.TRUE. IROOT=2            $END  
 INPUT CARD> $DATA                                                                          
 INPUT CARD>Water...RHF/3-21G...exp.geom...R(OH)=0.95781,A(HOH)=104.4776                    
 INPUT CARD>Cnv      2                                                                      
 INPUT CARD>                                                                                
 INPUT CARD>OXYGEN     8.0                                                                  
 INPUT CARD>HYDROGEN   1.0   0.0     0.7572157    0.5865358                                 
 INPUT CARD> $END                                                                           
    1000000 WORDS OF MEMORY AVAILABLE

     BASIS OPTIONS
     -------------
     GBASIS=N21          IGAUSS=       3      POLAR=NONE    
     NDFUNC=       0     NFFUNC=       0     DIFFSP=       F
     NPFUNC=       0      DIFFS=       F     BASNAM=        


     RUN TITLE
     ---------
 Water...RHF/3-21G...exp.geom...R(OH)=0.95781,A(HOH)=104.4776                    

 THE POINT GROUP OF THE MOLECULE IS CNV     
 THE ORDER OF THE PRINCIPAL AXIS IS     2

 ATOM      ATOMIC                      COORDINATES (BOHR)
           CHARGE         X                   Y                   Z
 OXYGEN      8.0     0.0000000000        0.0000000000        0.0000000000
 HYDROGEN    1.0    -0.0000000000       -1.4309301866        1.1083919440
 HYDROGEN    1.0     0.0000000000        1.4309301866        1.1083919440

          INTERNUCLEAR DISTANCES (ANGS.)
          ------------------------------

                1 OXYG       2 HYDR       3 HYDR  

   1 OXYG    0.0000000    0.9578099 *  0.9578099 *
   2 HYDR    0.9578099 *  0.0000000    1.5144314 *
   3 HYDR    0.9578099 *  1.5144314 *  0.0000000  

  * ... LESS THAN  3.000


     ATOMIC BASIS SET
     ----------------
 THE CONTRACTED PRIMITIVE FUNCTIONS HAVE BEEN UNNORMALIZED
 THE CONTRACTED BASIS FUNCTIONS ARE NOW NORMALIZED TO UNITY

  SHELL TYPE  PRIMITIVE        EXPONENT          CONTRACTION COEFFICIENT(S)

 OXYGEN    

      1   S       1           322.0370000    0.059239393389
      1   S       2            48.4308000    0.351499960776
      1   S       3            10.4206000    0.707657921031

      2   L       4             7.4029400   -0.404453583190    0.244586106967
      2   L       5             1.5762000    1.221561761397    0.853955373466

      3   L       6             0.3736840    1.000000000000    1.000000000000

 HYDROGEN  

      6   S       7             5.4471780    0.156284978695
      6   S       8             0.8245472    0.904690876670

      7   S       9             0.1831916    1.000000000000

 TOTAL NUMBER OF BASIS SET SHELLS             =    7
 NUMBER OF CARTESIAN GAUSSIAN BASIS FUNCTIONS =   13
 NUMBER OF ELECTRONS                          =   10
 CHARGE OF MOLECULE                           =    0
 SPIN MULTIPLICITY                            =    1
 NUMBER OF OCCUPIED ORBITALS (ALPHA)          =    5
 NUMBER OF OCCUPIED ORBITALS (BETA )          =    5
 TOTAL NUMBER OF ATOMS                        =    3
 THE NUCLEAR REPULSION ENERGY IS        9.1892102916

     $CONTRL OPTIONS
     ---------------
 SCFTYP=RHF          RUNTYP=ENERGY       EXETYP=RUN     
 MPLEVL=       0     CITYP =CIS          CCTYP =NONE         VBTYP =NONE    
 DFTTYP=NONE         TDDFT =NONE    
 MULT  =       1     ICHARG=       0     NZVAR =       0     COORD =UNIQUE  
 PP    =NONE         RELWFN=NONE         LOCAL =NONE         NUMGRD=       F
 ISPHER=      -1     NOSYM =       0     MAXIT =      30     UNITS =ANGS    
 PLTORB=       F     MOLPLT=       F     AIMPAC=       F     FRIEND=        
 NPRINT=       3     IREST =       0     GEOM  =INPUT   
 NORMF =       0     NORMP =       0     ITOL  =      20     ICUT  =       9
 INTTYP=BEST         GRDTYP=BEST         QMTTOL= 1.0E-06

     $SYSTEM OPTIONS
     ---------------
  REPLICATED MEMORY=     1000000 WORDS (ON EVERY NODE).
 DISTRIBUTED MEMDDI=           1 MILLION WORDS IN AGGREGATE,
 MEMDDI DISTRIBUTED OVER   1 PROCESSORS IS     1000000 WORDS/PROCESSOR.
 TOTAL MEMORY REQUESTED ON EACH PROCESSOR=     2000000 WORDS.
 TIMLIM=           1.00 MINUTES, OR       0.0 DAYS.
 PARALL= T  BALTYP=  DLB     KDIAG=    0  COREFL= F
 MXSEQ2=     300 MXSEQ3=     150  mem10=         0  mem22=         0

 Using Gaussians for PCM contribution to MEP, params: 0.10000E+01 0.10000E-07

          ----------------
          PROPERTIES INPUT
          ----------------

     MOMENTS            FIELD           POTENTIAL          DENSITY
 IEMOM =       1   IEFLD =       0   IEPOT =       0   IEDEN =       0
 WHERE =COMASS     WHERE =NUCLEI     WHERE =NUCLEI     WHERE =NUCLEI  
 OUTPUT=BOTH       OUTPUT=BOTH       OUTPUT=BOTH       OUTPUT=BOTH    
 IEMINT=       0   IEFINT=       0                     IEDINT=       0
                                                       MORB  =       0
          EXTRAPOLATION IN EFFECT
          SOSCF IN EFFECT
 ORBITAL PRINTING OPTION: NPREO=     1    13     2     1

     -------------------------------
     INTEGRAL TRANSFORMATION OPTIONS
     -------------------------------
     NWORD  =            0
     CUTOFF = 1.0E-09     MPTRAN =       0
     DIRTRF =       F     AOINTS =DUP     

          --------------
          OPENMP OPTIONS
          --------------
 INTOMP  =       1
 SHFOCK  =       F

 *** WARNING ***
 THREADED 2-ELECTRON INTEGRAL CODE ONLY WORKS WITH DIRECT SCF
 INTOMP OPTION WAS IGNORED

 2E INTS ALGORITHM: MPI(IJ), NO OPENMP

          ----------------------
          INTEGRAL INPUT OPTIONS
          ----------------------
 NOPK  =       1 NORDER=       0 SCHWRZ=       F

     ------------------------------
     CI-SINGLES CONTROL INFORMATION
     ------------------------------
     NACORE =        0  NBCORE   =        0
     NSTATE =      100  IROOT    =        2
     HAMTYP = DETS      SAP MULT =        1
     DIAGZN = DAVID     MXVEC    =      800
     NDAVIT =       50  DAVCVG   = 1.00E-05
     CISPRP =        T  NGSVEC   =      200
     MNMEDG =        F  MNMEOP   =        F
     CHFSLV = CONJG     RDCISV   =        F
     DGAPRX =        T

     NUMBER OF CORE -A-  ORBITALS =     0
     NUMBER OF CORE -B-  ORBITALS =     0
     NUMBER OF OCC. -A-  ORBITALS =     5
     NUMBER OF OCC. -B-  ORBITALS =     5
     NUMBER OF MOLECULAR ORBITALS =    13
     NUMBER OF   BASIS  FUNCTIONS =    13


     ------------------------------------------
     THE POINT GROUP IS CNV, NAXIS= 2, ORDER= 4
     ------------------------------------------

     DIMENSIONS OF THE SYMMETRY SUBSPACES ARE
 A1  =    7     A2  =    0     B1  =    2     B2  =    4

 ..... DONE SETTING UP THE RUN .....
 CPU     0: STEP CPU TIME=     0.11 TOTAL CPU TIME=          0.1 (      0.0 MIN)
 TOTAL WALL CLOCK TIME=          0.0 SECONDS, CPU UTILIZATION IS   363.12%

          ********************
          1 ELECTRON INTEGRALS
          ********************
 OVERLAP MATRIX

                      1          2          3          4          5

    1  O  1  S    1.000000
    2  O  1  S    0.209215   1.000000
    3  O  1  X    0.000000   0.000000   1.000000
    4  O  1  Y    0.000000   0.000000   0.000000   1.000000
    5  O  1  Z    0.000000   0.000000   0.000000   0.000000   1.000000
    6  O  1  S    0.183087   0.740016   0.000000   0.000000   0.000000
    7  O  1  X    0.000000   0.000000   0.498767   0.000000   0.000000
    8  O  1  Y    0.000000   0.000000   0.000000   0.498767   0.000000
    9  O  1  Z    0.000000   0.000000   0.000000   0.000000   0.498767
   10  H  2  S    0.022738   0.161278  -0.000000  -0.162011   0.125493
   11  H  2  S    0.060827   0.302337  -0.000000  -0.093443   0.072381
   12  H  3  S    0.022738   0.161278   0.000000   0.162011   0.125493
   13  H  3  S    0.060827   0.302337   0.000000   0.093443   0.072381

                      6          7          8          9         10

    6  O  1  S    1.000000
    7  O  1  X    0.000000   1.000000
    8  O  1  Y    0.000000   0.000000   1.000000
    9  O  1  Z    0.000000   0.000000   0.000000   1.000000
   10  H  2  S    0.364523  -0.000000  -0.446225   0.345644   1.000000
   11  H  2  S    0.608926  -0.000000  -0.350439   0.271448   0.645898
   12  H  3  S    0.364523   0.000000   0.446225   0.345644   0.028407
   13  H  3  S    0.608926   0.000000   0.350439   0.271448   0.187296

                     11         12         13

   11  H  2  S    1.000000
   12  H  3  S    0.187296   1.000000
   13  H  3  S    0.472276   0.645898   1.000000
 BARE NUCLEUS HAMILTONIAN INTEGRALS (H=T+V)

                      1          2          3          4          5

    1  O  1  S  -32.878877
    2  O  1  S   -7.705631 -10.176422
    3  O  1  X    0.000000   0.000000  -8.691079
    4  O  1  Y    0.000000   0.000000  -0.000000  -8.772863
    5  O  1  Z   -0.024262  -0.158977   0.000000   0.000000  -8.740149
    6  O  1  S   -6.427318  -8.070919   0.000000   0.000000  -0.151773
    7  O  1  X    0.000000   0.000000  -4.185354  -0.000000   0.000000
    8  O  1  Y    0.000000   0.000000  -0.000000  -4.260734   0.000000
    9  O  1  Z   -0.003433  -0.096152   0.000000   0.000000  -4.230582
   10  H  2  S   -0.821421  -1.772363   0.000000   1.464699  -1.151817
   11  H  2  S   -2.153052  -3.301775   0.000000   0.830181  -0.703693
   12  H  3  S   -0.821421  -1.772363   0.000000  -1.464699  -1.151817
   13  H  3  S   -2.153052  -3.301775   0.000000  -0.830181  -0.703693

                      6          7          8          9         10

    6  O  1  S   -8.318629
    7  O  1  X    0.000000  -5.158498
    8  O  1  Y    0.000000  -0.000000  -5.400255
    9  O  1  Z   -0.250890   0.000000   0.000000  -5.303552
   10  H  2  S   -2.644502   0.000000   2.524269  -1.982448  -4.937168
   11  H  2  S   -4.373016   0.000000   1.736623  -1.484447  -3.542414
   12  H  3  S   -2.644502   0.000000  -2.524269  -1.982448  -0.281152
   13  H  3  S   -4.373016   0.000000  -1.736623  -1.484447  -1.266549

                     11         12         13

   11  H  2  S   -4.636459
   12  H  3  S   -1.266549  -4.937168
   13  H  3  S   -2.690086  -3.542414  -4.636459
 KINETIC ENERGY INTEGRALS

                      1          2          3          4          5

    1  O  1  S   30.469944
    2  O  1  S   -2.854205   2.787882
    3  O  1  X    0.000000   0.000000   5.351306
    4  O  1  Y    0.000000   0.000000   0.000000   5.351306
    5  O  1  Z    0.000000   0.000000   0.000000   0.000000   5.351306
    6  O  1  S    0.198958   0.652395   0.000000   0.000000   0.000000
    7  O  1  X    0.000000   0.000000   0.761164   0.000000   0.000000
    8  O  1  Y    0.000000   0.000000   0.000000   0.761164   0.000000
    9  O  1  Z    0.000000   0.000000   0.000000   0.000000   0.761164
   10  H  2  S   -0.035960  -0.046848  -0.000000  -0.099315   0.076929
   11  H  2  S    0.019948   0.095077  -0.000000  -0.060363   0.046757
   12  H  3  S   -0.035960  -0.046848   0.000000   0.099315   0.076929
   13  H  3  S    0.019948   0.095077   0.000000   0.060363   0.046757

                      6          7          8          9         10

    6  O  1  S    0.560526
    7  O  1  X    0.000000   0.934210
    8  O  1  Y    0.000000   0.000000   0.934210
    9  O  1  Z    0.000000   0.000000   0.000000   0.934210
   10  H  2  S    0.121734  -0.000000  -0.383041   0.296702   1.549405
   11  H  2  S    0.164271  -0.000000  -0.180696   0.139967   0.293151
   12  H  3  S    0.121734   0.000000   0.383041   0.296702  -0.046052
   13  H  3  S    0.164271   0.000000   0.180696   0.139967   0.014794

                     11         12         13

   11  H  2  S    0.274787
   12  H  3  S    0.014794   1.549405
   13  H  3  S    0.064871   0.293151   0.274787
 ...... END OF ONE-ELECTRON INTEGRALS ......
 CPU     0: STEP CPU TIME=     0.01 TOTAL CPU TIME=          0.1 (      0.0 MIN)
 TOTAL WALL CLOCK TIME=          0.0 SECONDS, CPU UTILIZATION IS   351.85%

          -------------
          GUESS OPTIONS
          -------------
          GUESS =HUCKEL            NORB  =       0          NORDER=       0
          MIX   =       F          PRTMO =       F          PUNMO =       F
          TOLZ  = 1.0E-08          TOLE  = 1.0E-05
          SYMDEN=       F          PURIFY=       F

 INITIAL GUESS ORBITALS GENERATED BY HUCKEL   ROUTINE.
 HUCKEL GUESS REQUIRES      3586 WORDS.

 SYMMETRIES FOR INITIAL GUESS ORBITALS FOLLOW.   BOTH SET(S).
     5 ORBITALS ARE OCCUPIED (    1 CORE ORBITALS).
     2=A1       3=B2       4=A1       5=B1       6=B2       7=A1       8=A1  
     9=A1      10=A1      11=B1      12=B2      13=B2  
 ...... END OF INITIAL ORBITAL SELECTION ......
 CPU     0: STEP CPU TIME=     0.01 TOTAL CPU TIME=          0.1 (      0.0 MIN)
 TOTAL WALL CLOCK TIME=          0.0 SECONDS, CPU UTILIZATION IS   350.53%

                    ----------------------
                    AO INTEGRAL TECHNOLOGY
                    ----------------------
     S,P,L SHELL ROTATED AXIS INTEGRALS, REPROGRAMMED BY
        KAZUYA ISHIMURA (IMS) AND JOSE SIERRA (SYNSTAR).
     S,P,D,L SHELL ROTATED AXIS INTEGRALS PROGRAMMED BY
        KAZUYA ISHIMURA (INSTITUTE FOR MOLECULAR SCIENCE).
     S,P,D,F,G SHELL TO TOTAL QUARTET ANGULAR MOMENTUM SUM 5,
        ERIC PROGRAM BY GRAHAM FLETCHER (ELORET AND NASA ADVANCED
        SUPERCOMPUTING DIVISION, AMES RESEARCH CENTER).
     S,P,D,F,G,L SHELL GENERAL RYS QUADRATURE PROGRAMMED BY
        MICHEL DUPUIS (PACIFIC NORTHWEST NATIONAL LABORATORY).

          --------------------
          2 ELECTRON INTEGRALS
          --------------------

 THE -PK- OPTION IS OFF, THE INTEGRALS ARE NOT IN SUPERMATRIX FORM.
 STORING   15000 INTEGRALS/RECORD ON DISK, USING 12 BYTES/INTEGRAL.
 TWO ELECTRON INTEGRAL EVALUATION REQUIRES   89384 WORDS OF MEMORY.
 II,JST,KST,LST =  1  1  1  1 NREC =         1 INTLOC =    1
 II,JST,KST,LST =  2  1  1  1 NREC =         1 INTLOC =    2
 II,JST,KST,LST =  3  1  1  1 NREC =         1 INTLOC =   34
 II,JST,KST,LST =  4  1  1  1 NREC =         1 INTLOC =  214
 II,JST,KST,LST =  5  1  1  1 NREC =         1 INTLOC =  214
 II,JST,KST,LST =  6  1  1  1 NREC =         1 INTLOC =  214
 II,JST,KST,LST =  7  1  1  1 NREC =         1 INTLOC =  604
 TOTAL NUMBER OF NONZERO TWO-ELECTRON INTEGRALS =                1282
          1 INTEGRAL RECORDS WERE STORED ON DISK FILE  8.
  ...... END OF TWO-ELECTRON INTEGRALS .....
 CPU     0: STEP CPU TIME=     0.10 TOTAL CPU TIME=          0.2 (      0.0 MIN)
 TOTAL WALL CLOCK TIME=          0.1 SECONDS, CPU UTILIZATION IS   357.30%

          --------------------------
                 RHF SCF CALCULATION
          --------------------------

     NUCLEAR ENERGY =         9.1892102916
     MAXIT =   30     NPUNCH=    2
     EXTRAP=T  DAMP=F  SHIFT=F  RSTRCT=F  DIIS=F  DEM=F  SOSCF=T
     DENSITY MATRIX CONV=  1.00E-06
     SOSCF WILL OPTIMIZE      40 ORBITAL ROTATIONS, SOGTOL=   0.250
     MEMORY REQUIRED FOR RHF ITERS=     31525 WORDS.

 ITER EX DEM     TOTAL ENERGY        E CHANGE  DENSITY CHANGE     ORB. GRAD
   1  0  0      -75.3658205552   -75.3658205552   0.540988242   0.000000000
          ---------------START SECOND ORDER SCF---------------
   2  1  0      -75.5739621583    -0.2081416030   0.140274801   0.057364551
   3  2  0      -75.5843616321    -0.0103994739   0.050886441   0.014837811
   4  3  0      -75.5853588587    -0.0009972266   0.003802344   0.002909389
   5  4  0      -75.5854005249    -0.0000416662   0.001539939   0.001459426
   6  5  0      -75.5854097864    -0.0000092615   0.000266646   0.000191658
   7  6  0      -75.5854099051    -0.0000001187   0.000049163   0.000022586
   8  7  0      -75.5854099068    -0.0000000017   0.000004702   0.000003997
   9  8  0      -75.5854099068    -0.0000000000   0.000001014   0.000000673
  10  9  0      -75.5854099068    -0.0000000000   0.000000219   0.000000107

          -----------------
          DENSITY CONVERGED
          -----------------
     TIME TO FORM FOCK OPERATORS=       0.0 SECONDS (       0.0 SEC/ITER)
     TIME TO SOLVE SCF EQUATIONS=       0.0 SECONDS (       0.0 SEC/ITER)

 FINAL RHF ENERGY IS      -75.5854099068 AFTER  10 ITERATIONS

          ------------
          EIGENVECTORS
          ------------

                      1          2          3          4          5
                  -20.4283    -1.3292    -0.6853    -0.5376    -0.4796
                     A1         A1         B2         A1         B1  
    1  O  1  S    0.983232  -0.229152  -0.000000   0.088425   0.000000
    2  O  1  S    0.095883   0.217517  -0.000000  -0.082203   0.000000
    3  O  1  X   -0.000000   0.000000  -0.000000  -0.000000   0.521291
    4  O  1  Y   -0.000000   0.000000   0.398526  -0.000000   0.000000
    5  O  1  Z    0.003537   0.083483  -0.000000   0.441972   0.000000
    6  O  1  S   -0.038016   0.706272  -0.000000  -0.404997   0.000000
    7  O  1  X   -0.000000   0.000000  -0.000000  -0.000000   0.632105
    8  O  1  Y   -0.000000   0.000000   0.369755  -0.000000   0.000000
    9  O  1  Z   -0.006793   0.093449  -0.000000   0.507923   0.000000
   10  H  2  S    0.002616   0.117151  -0.233864   0.130894   0.000000
   11  H  2  S    0.006908   0.019083  -0.183325   0.105229   0.000000
   12  H  3  S    0.002616   0.117151   0.233864   0.130894   0.000000
   13  H  3  S    0.006908   0.019083   0.183325   0.105229   0.000000

                      6          7          8          9         10
                    0.2636     0.3619     1.1930     1.3081     1.7823
                     A1         B2         B2         A1         B1  
    1  O  1  S   -0.109214   0.000000  -0.000000   0.068463   0.000000
    2  O  1  S    0.034848   0.000000  -0.000000  -0.098778   0.000000
    3  O  1  X    0.000000   0.000000  -0.000000   0.000000   1.029273
    4  O  1  Y    0.000000   0.303115   0.182478   0.000000   0.000000
    5  O  1  Z    0.209200   0.000000  -0.000000  -0.276683   0.000000
    6  O  1  S    1.044979   0.000000  -0.000000  -0.116460   0.000000
    7  O  1  X    0.000000   0.000000  -0.000000   0.000000  -0.965189
    8  O  1  Y    0.000000   0.774746   0.452720   0.000000   0.000000
    9  O  1  Z    0.466164   0.000000  -0.000000  -0.301713   0.000000
   10  H  2  S   -0.046426   0.036159   0.964975   0.985009   0.000000
   11  H  2  S   -0.863110   1.176674  -0.684075  -0.485556   0.000000
   12  H  3  S   -0.046426  -0.036159  -0.964975   0.985009   0.000000
   13  H  3  S   -0.863110  -1.176674   0.684075  -0.485556   0.000000

                     11         12         13
                    1.8669     2.0159     3.1133
                     A1         B2         A1  
    1  O  1  S   -0.045193   0.000000   0.084643
    2  O  1  S    0.135668   0.000000  -1.641375
    3  O  1  X   -0.000000   0.000000   0.000000
    4  O  1  Y   -0.000000  -1.067043   0.000000
    5  O  1  Z   -1.010034   0.000000  -0.160538
    6  O  1  S    0.172342   0.000000   1.993863
    7  O  1  X   -0.000000   0.000000   0.000000
    8  O  1  Y   -0.000000   1.396235   0.000000
    9  O  1  Z    1.152742   0.000000   0.497522
   10  H  2  S   -0.260464   0.137469  -0.287286
   11  H  2  S   -0.092176   0.507618  -0.359616
   12  H  3  S   -0.260464  -0.137469  -0.287286
   13  H  3  S   -0.092176  -0.507618  -0.359616
 ...... END OF RHF CALCULATION ......
 CPU     0: STEP CPU TIME=     0.04 TOTAL CPU TIME=          0.3 (      0.0 MIN)
 TOTAL WALL CLOCK TIME=          0.1 SECONDS, CPU UTILIZATION IS   339.35%

     ----------------------------------------------------------------
     PROPERTY VALUES FOR THE RHF   SELF-CONSISTENT FIELD WAVEFUNCTION
     ----------------------------------------------------------------

          -----------------
          ENERGY COMPONENTS
          -----------------

         WAVEFUNCTION NORMALIZATION =       1.0000000000

                ONE ELECTRON ENERGY =    -122.6292023680
                TWO ELECTRON ENERGY =      37.8545821696
           NUCLEAR REPULSION ENERGY =       9.1892102916
                                      ------------------
                       TOTAL ENERGY =     -75.5854099068

 ELECTRON-ELECTRON POTENTIAL ENERGY =      37.8545821696
  NUCLEUS-ELECTRON POTENTIAL ENERGY =    -198.0945429197
   NUCLEUS-NUCLEUS POTENTIAL ENERGY =       9.1892102916
                                      ------------------
             TOTAL POTENTIAL ENERGY =    -151.0507504585
               TOTAL KINETIC ENERGY =      75.4653405517
                 VIRIAL RATIO (V/T) =       2.0015910530

  ...... PI ENERGY ANALYSIS ......

 ENERGY ANALYSIS:
            FOCK ENERGY=    -46.9200382164
          BARE H ENERGY=   -122.6292023680
     ELECTRONIC ENERGY =    -84.7746202922
         KINETIC ENERGY=     75.4653405517
          N-N REPULSION=      9.1892102916
           TOTAL ENERGY=    -75.5854100006
        SIGMA PART(1+2)=    -77.1139047241
               (K,V1,2)=     70.8071738944   -179.0741563131     31.1530776946
           PI PART(1+2)=     -7.6607155681
               (K,V1,2)=      4.6581666573    -19.0203866066      6.7015043812
  SIGMA SKELETON, ERROR=    -67.9246944326     -0.0000000000
             MIXED PART= 0.00000E+00 0.00000E+00 0.00000E+00 0.00000E+00
 ...... END OF PI ENERGY ANALYSIS ......
 MEMORY ASSIGNEMENT
 I10, I20, I21, I30, I31, I40, I41, I60 =
****************************************************************
 LAST = ********

          ---------------------------------------
          MULLIKEN AND LOWDIN POPULATION ANALYSES
          ---------------------------------------
 MEMORY ASSIGNMENT
 I10, I30, I40, I50, I60, I70, I41, I51, I61, I71 =
********************************************************************************
 LAST = ********

          ----- MULLIKEN ATOMIC OVERLAP POPULATIONS -----
          (OFF-DIAGONAL ELEMENTS NEED TO BE MULTIPLIED BY 2)

                      1          2          3          4          5

    1  O  1  S    2.054149
    2  O  1  S    0.015550   0.126529
    3  O  1  X    0.000000   0.000000   0.543490
    4  O  1  Y    0.000000   0.000000   0.000000   0.317646
    5  O  1  Z    0.000000  -0.000000   0.000000   0.000000   0.404642
    6  O  1  S   -0.086063   0.271250   0.000000   0.000000  -0.000000
    7  O  1  X    0.000000   0.000000   0.328698   0.000000   0.000000
    8  O  1  Y    0.000000   0.000000   0.000000   0.146993   0.000000
    9  O  1  Z    0.000000  -0.000000   0.000000   0.000000   0.231692
   10  H  2  S   -0.000577   0.004830  -0.000000   0.030199   0.016977
   11  H  2  S    0.001426  -0.002320  -0.000000   0.013654   0.006967
   12  H  3  S   -0.000577   0.004830   0.000000   0.030199   0.016977
   13  H  3  S    0.001426  -0.002320   0.000000   0.013654   0.006967

                      6          7          8          9         10

    6  O  1  S    1.328577
    7  O  1  X    0.000000   0.799114
    8  O  1  Y    0.000000   0.000000   0.273437
    9  O  1  Z   -0.000000   0.000000   0.000000   0.533529
   10  H  2  S    0.021601  -0.000000   0.077172   0.053515   0.171114
   11  H  2  S   -0.035807  -0.000000   0.047509   0.029960   0.076088
   12  H  3  S    0.021601   0.000000   0.077172   0.053515  -0.001354
   13  H  3  S   -0.035807   0.000000   0.047509   0.029960  -0.010056

                     11         12         13

   11  H  2  S    0.090187
   12  H  3  S   -0.010056   0.171114
   13  H  3  S   -0.020896   0.076088   0.090187

               ----- POPULATIONS IN EACH AO -----
                             MULLIKEN      LOWDIN
              1  O  1  S      1.98533     1.98018
              2  O  1  S      0.41835     0.56940
              3  O  1  X      0.87219     0.88922
              4  O  1  Y      0.55235     0.52170
              5  O  1  Z      0.68422     0.67750
              6  O  1  S      1.48535     1.06548
              7  O  1  X      1.12781     1.11078
              8  O  1  Y      0.66979     0.71445
              9  O  1  Z      0.93217     0.93519
             10  H  2  S      0.43951     0.45196
             11  H  2  S      0.19671     0.31609
             12  H  3  S      0.43951     0.45196
             13  H  3  S      0.19671     0.31609

          ----- MULLIKEN ATOMIC OVERLAP POPULATIONS -----
          (OFF-DIAGONAL ELEMENTS NEED TO BE MULTIPLIED BY 2)

             1           2           3

    1    8.1973525
    2    0.2651051   0.4134759
    3    0.2651051  -0.0423624   0.4134759

          TOTAL MULLIKEN AND LOWDIN ATOMIC POPULATIONS
       ATOM         MULL.POP.                    LOW.POP.

          TOTAL MULLIKEN AND LOWDIN ATOMIC POPULATIONS
       ATOM         MULL.POP.    CHARGE          LOW.POP.     CHARGE
    1 OXYGEN        8.727563                     8.463902
    1 OXYGEN        8.727563   -0.727563         8.463902   -0.463902
    2 HYDROGEN      0.636219                     0.768049
    2 HYDROGEN      0.636219    0.363781         0.768049    0.231951
    3 HYDROGEN      0.636219                     0.768049
    3 HYDROGEN      0.636219    0.363781         0.768049    0.231951

          ---------------------
          ELECTROSTATIC MOMENTS
          ---------------------

 POINT   1           X           Y           Z (BOHR)    CHARGE
                -0.000000    0.000000    0.124046       -0.00 (A.U.)
         DX          DY          DZ         /D/  (DEBYE)
    -0.000000    0.000000    2.435689    2.435689
 ...... END OF PROPERTY EVALUATION ......
 CPU     0: STEP CPU TIME=     0.02 TOTAL CPU TIME=          0.3 (      0.0 MIN)
 TOTAL WALL CLOCK TIME=          0.1 SECONDS, CPU UTILIZATION IS   331.44%

 MXVEC CANNOT BE BIGGER THAN THE NUMBER OF CIS CONFIGS
 SETTING MXVEC = NCFG


          ---------------------------------------------------
          ATOMIC ORBITAL BASIS CI-SINGLES ENERGY + PROPERTIES
          PROGRAM WRITTEN BY SIMON P. WEBB
          ---------------------------------------------------

 # CORE ORBITALS      =    0
 # OCCUPIED ORBITALS  =    5
 # MOLECULAR ORBITALS =   13
 # BASIS FUNCTIONS    =   13

 NUMBER OF CIS DETERMINANTS IS      80

 APPROXIMATING CIS HAMILTONIAN DIAGONAL ELEMENTS USING ONLY ORBITAL ENERGIES

 -CIS- HAM. DIAGONAL ELEMENTS  TOOK      0.000 SECONDS

 MIN MEMORY REQ. FOR CIS ENERGY FOCK-LIKE BUILDS =       676 WORDS
 MEMORY REQ. FOR SINGLE BATCH BUILDS             =     54080 WORDS
 MEMORY AVAILABLE                                =    941742 WORDS

 SINGLE BATCH ENERGY CALCULATION WILL BE PERFORMED

          --------------------
          2 ELECTRON INTEGRALS
          --------------------

 THE -PK- OPTION IS OFF, THE INTEGRALS ARE NOT IN SUPERMATRIX FORM.
 STORING   15000 INTEGRALS/RECORD ON DISK, USING 12 BYTES/INTEGRAL.
 TWO ELECTRON INTEGRAL EVALUATION REQUIRES   89384 WORDS OF MEMORY.
 II,JST,KST,LST =  1  1  1  1 NREC =         1 INTLOC =    1
 II,JST,KST,LST =  2  1  1  1 NREC =         1 INTLOC =    2
 II,JST,KST,LST =  3  1  1  1 NREC =         1 INTLOC =   34
 II,JST,KST,LST =  4  1  1  1 NREC =         1 INTLOC =  214
 II,JST,KST,LST =  5  1  1  1 NREC =         1 INTLOC =  529
 II,JST,KST,LST =  6  1  1  1 NREC =         1 INTLOC =  960
 II,JST,KST,LST =  7  1  1  1 NREC =         1 INTLOC = 1524
 TOTAL NUMBER OF NONZERO TWO-ELECTRON INTEGRALS =                2260
          1 INTEGRAL RECORDS WERE STORED ON DISK FILE  8.
  ...... END OF TWO-ELECTRON INTEGRALS .....
 CPU     0: STEP CPU TIME=     0.00 TOTAL CPU TIME=          0.3 (      0.0 MIN)
 TOTAL WALL CLOCK TIME=          0.1 SECONDS, CPU UTILIZATION IS   324.23%

 UNIT VECTOR GUESS AT CIS COEFFICIENTS ...

 USING IN MEMORY DIAGONALIZTION TO FIND CIS EIGENVALUES AND EIGENVECTORS ...

 STATE    1 ENERGY=      -75.2707831920
 STATE    2 ENERGY=      -75.2311339687
 STATE    3 ENERGY=      -75.2027764174
 STATE    4 ENERGY=      -75.1885185731
 STATE    5 ENERGY=      -75.1613374278
 STATE    6 ENERGY=      -75.1392479321
 STATE    7 ENERGY=      -75.1359959146
 STATE    8 ENERGY=      -75.0674696136
 STATE    9 ENERGY=      -75.0612848999
 STATE   10 ENERGY=      -75.0041471931
 STATE   11 ENERGY=      -74.9982652271
 STATE   12 ENERGY=      -74.8307000818
 STATE   13 ENERGY=      -74.4558326722
 STATE   14 ENERGY=      -74.3678324132
 STATE   15 ENERGY=      -74.3602562157
 STATE   16 ENERGY=      -74.3543536018
 STATE   17 ENERGY=      -74.3481588447
 STATE   18 ENERGY=      -74.3413941301
 STATE   19 ENERGY=      -74.3027825518
 STATE   20 ENERGY=      -74.2908101770
 STATE   21 ENERGY=      -74.2859963295
 STATE   22 ENERGY=      -74.2492207647
 STATE   23 ENERGY=      -74.2328475953
 STATE   24 ENERGY=      -74.1772286890
 STATE   25 ENERGY=      -74.1618391678
 STATE   26 ENERGY=      -74.1437446273
 STATE   27 ENERGY=      -74.0888774386
 STATE   28 ENERGY=      -74.0728748088
 STATE   29 ENERGY=      -73.9826276135
 STATE   30 ENERGY=      -73.9569252430
 STATE   31 ENERGY=      -73.9000850354
 STATE   32 ENERGY=      -73.8858484136
 STATE   33 ENERGY=      -73.8824483538
 STATE   34 ENERGY=      -73.8750912418
 STATE   35 ENERGY=      -73.8611599249
 STATE   36 ENERGY=      -73.7696392924
 STATE   37 ENERGY=      -73.7217015168
 STATE   38 ENERGY=      -73.7031531842
 STATE   39 ENERGY=      -73.6922555971
 STATE   40 ENERGY=      -73.6854273577
 STATE   41 ENERGY=      -73.6420941176
 STATE   42 ENERGY=      -73.6074253794
 STATE   43 ENERGY=      -73.6030061318
 STATE   44 ENERGY=      -73.5814948144
 STATE   45 ENERGY=      -73.5470589449
 STATE   46 ENERGY=      -73.5221876742
 STATE   47 ENERGY=      -73.4975266805
 STATE   48 ENERGY=      -73.4709842487
 STATE   49 ENERGY=      -73.4167811450
 STATE   50 ENERGY=      -73.1832512848
 STATE   51 ENERGY=      -73.1153506715
 STATE   52 ENERGY=      -73.0812283625
 STATE   53 ENERGY=      -73.0548089457
 STATE   54 ENERGY=      -72.9765076599
 STATE   55 ENERGY=      -72.9174154209
 STATE   56 ENERGY=      -72.8361039117
 STATE   57 ENERGY=      -72.6770207178
 STATE   58 ENERGY=      -72.5972569052
 STATE   59 ENERGY=      -72.5733176243
 STATE   60 ENERGY=      -72.5037004375
 STATE   61 ENERGY=      -72.3899872838
 STATE   62 ENERGY=      -72.3464098190
 STATE   63 ENERGY=      -71.8332447077
 STATE   64 ENERGY=      -71.6318431639
 STATE   65 ENERGY=      -55.5147136919
 STATE   66 ENERGY=      -55.4889981682
 STATE   67 ENERGY=      -55.4459356993
 STATE   68 ENERGY=      -55.4246791097
 STATE   69 ENERGY=      -54.5763793930
 STATE   70 ENERGY=      -54.5736276466
 STATE   71 ENERGY=      -54.4990570005
 STATE   72 ENERGY=      -54.4975320223
 STATE   73 ENERGY=      -54.4828251633
 STATE   74 ENERGY=      -54.4407733634
 STATE   75 ENERGY=      -54.2726334360
 STATE   76 ENERGY=      -54.2102182234
 STATE   77 ENERGY=      -54.1871618064
 STATE   78 ENERGY=      -54.1026177301
 STATE   79 ENERGY=      -53.1112878745
 STATE   80 ENERGY=      -52.9756983610
 STATE   81 ENERGY=      -76.5776809546
 STATE   82 ENERGY=      -75.5854099068
 STATE   83 ENERGY=      -75.5854099068
 STATE   84 ENERGY=      -75.5854099068
 STATE   85 ENERGY=      -75.5854099068
 STATE   86 ENERGY=      -75.5854099068
 STATE   87 ENERGY=      -75.5854099068
 STATE   88 ENERGY=      -75.5854099068
 STATE   89 ENERGY=      -75.5854099068
 STATE   90 ENERGY=      -75.5854099068
 STATE   91 ENERGY=      -75.5854099068
 STATE   92 ENERGY=      -75.5854099068
 STATE   93 ENERGY=      -75.5854099068
 STATE   94 ENERGY=      -75.5854099068
 STATE   95 ENERGY=      -75.5854099068
 STATE   96 ENERGY=      -75.5854099068
 STATE   97 ENERGY=      -75.5854099068
 STATE   98 ENERGY=      -75.5854099068
 STATE   99 ENERGY=      -75.5854099068
 STATE  100 ENERGY=      -75.5854099068


        --------------------------------------------------------
        RESULTS FROM DETERMINANT BASED ATOMIC ORBITAL CI-SINGLES
                            ENERGY CALCULATION
        --------------------------------------------------------

 PRINTING CIS COEFFICIENTS LARGER THAN  0.050000

 RHF REFERENCE ENERGY  =       -75.5854099068


 EXCITED STATE   1  ENERGY=       -75.2707831920  S = 1.0  SPACE SYM = B1  

       -----------------------------------------------------
                   SINGLE EXCITATION              COEFFICENT
            FROM SPIN ORB     TO SPIN ORB
       -----------------------------------------------------
       ALPHA       5                6           -0.70164159
       ALPHA       5                9            0.07354773
       BETA        5                6            0.70164159
       BETA        5                9           -0.07354773
       -----------------------------------------------------


 EXCITED STATE   2  ENERGY=       -75.2311339687  S = 0.0  SPACE SYM = B1  

       -----------------------------------------------------
                   SINGLE EXCITATION              COEFFICENT
            FROM SPIN ORB     TO SPIN ORB
       -----------------------------------------------------
       ALPHA       5                6           -0.70390592
       ALPHA       5                9            0.05355746
       BETA        5                6           -0.70390592
       BETA        5                9            0.05355746
       -----------------------------------------------------


 EXCITED STATE   3  ENERGY=       -75.2027764174  S = 1.0  SPACE SYM = A1  

       -----------------------------------------------------
                   SINGLE EXCITATION              COEFFICENT
            FROM SPIN ORB     TO SPIN ORB
       -----------------------------------------------------
       ALPHA       2                6            0.05155320
       ALPHA       3                7            0.11159398
       ALPHA       4                6            0.69094693
       ALPHA       4                9           -0.07103341
       BETA        2                6           -0.05155320
       BETA        3                7           -0.11159398
       BETA        4                6           -0.69094693
       BETA        4                9            0.07103341
       -----------------------------------------------------


 EXCITED STATE   4  ENERGY=       -75.1885185731  S = 1.0  SPACE SYM = A2  

       -----------------------------------------------------
                   SINGLE EXCITATION              COEFFICENT
            FROM SPIN ORB     TO SPIN ORB
       -----------------------------------------------------
       ALPHA       5                7           -0.69787859
       ALPHA       5                8           -0.09054667
       ALPHA       5               12            0.06878333
       BETA        5                7            0.69787859
       BETA        5                8            0.09054667
       BETA        5               12           -0.06878333
       -----------------------------------------------------


 EXCITED STATE   5  ENERGY=       -75.1613374278  S = 0.0  SPACE SYM = A2  

       -----------------------------------------------------
                   SINGLE EXCITATION              COEFFICENT
            FROM SPIN ORB     TO SPIN ORB
       -----------------------------------------------------
       ALPHA       5                7           -0.70006828
       ALPHA       5                8           -0.07845166
       ALPHA       5               12            0.06119957
       BETA        5                7           -0.70006828
       BETA        5                8           -0.07845166
       BETA        5               12            0.06119957
       -----------------------------------------------------


 EXCITED STATE   6  ENERGY=       -75.1392479321  S = 1.0  SPACE SYM = B2  

       -----------------------------------------------------
                   SINGLE EXCITATION              COEFFICENT
            FROM SPIN ORB     TO SPIN ORB
       -----------------------------------------------------
       ALPHA       3                6           -0.29323913
       ALPHA       4                7           -0.63217602
       ALPHA       4                8           -0.09186181
       ALPHA       4               12            0.05333191
       BETA        3                6            0.29323913
       BETA        4                7            0.63217602
       BETA        4                8            0.09186181
       BETA        4               12           -0.05333191
       -----------------------------------------------------


 EXCITED STATE   7  ENERGY=       -75.1359959146  S = 0.0  SPACE SYM = A1  

       -----------------------------------------------------
                   SINGLE EXCITATION              COEFFICENT
            FROM SPIN ORB     TO SPIN ORB
       -----------------------------------------------------
       ALPHA       3                7           -0.10495744
       ALPHA       4                6            0.69632636
       BETA        3                7           -0.10495744
       BETA        4                6            0.69632636
       -----------------------------------------------------


 EXCITED STATE   8  ENERGY=       -75.0674696136  S = 1.0  SPACE SYM = B2  

       -----------------------------------------------------
                   SINGLE EXCITATION              COEFFICENT
            FROM SPIN ORB     TO SPIN ORB
       -----------------------------------------------------
       ALPHA       2                7           -0.06254083
       ALPHA       3                6           -0.63336037
       ALPHA       3                9            0.06738354
       ALPHA       4                7            0.29542035
       BETA        2                7            0.06254083
       BETA        3                6            0.63336037
       BETA        3                9           -0.06738354
       BETA        4                7           -0.29542035
       -----------------------------------------------------


 EXCITED STATE   9  ENERGY=       -75.0612848999  S = 0.0  SPACE SYM = B2  

       -----------------------------------------------------
                   SINGLE EXCITATION              COEFFICENT
            FROM SPIN ORB     TO SPIN ORB
       -----------------------------------------------------
       ALPHA       3                6            0.12658400
       ALPHA       4                7           -0.69111448
       ALPHA       4               12            0.05461081
       BETA        3                6            0.12658400
       BETA        4                7           -0.69111448
       BETA        4               12            0.05461081
       -----------------------------------------------------


 EXCITED STATE  10  ENERGY=       -75.0041471931  S = 1.0  SPACE SYM = A1  

       -----------------------------------------------------
                   SINGLE EXCITATION              COEFFICENT
            FROM SPIN ORB     TO SPIN ORB
       -----------------------------------------------------
       ALPHA       2                6           -0.08201633
       ALPHA       3                7           -0.68172036
       ALPHA       3                8           -0.09648809
       ALPHA       3               12            0.05772257
       ALPHA       4                6            0.12188223
       BETA        2                6            0.08201633
       BETA        3                7            0.68172036
       BETA        3                8            0.09648809
       BETA        3               12           -0.05772257
       BETA        4                6           -0.12188223
       -----------------------------------------------------


 EXCITED STATE  11  ENERGY=       -74.9982652271  S = 0.0  SPACE SYM = B2  

       -----------------------------------------------------
                   SINGLE EXCITATION              COEFFICENT
            FROM SPIN ORB     TO SPIN ORB
       -----------------------------------------------------
       ALPHA       3                6           -0.69324803
       ALPHA       4                7           -0.12751937
       BETA        3                6           -0.69324803
       BETA        4                7           -0.12751937
       -----------------------------------------------------


 EXCITED STATE  12  ENERGY=       -74.8307000818  S = 0.0  SPACE SYM = A1  

       -----------------------------------------------------
                   SINGLE EXCITATION              COEFFICENT
            FROM SPIN ORB     TO SPIN ORB
       -----------------------------------------------------
       ALPHA       3                7            0.69090312
       ALPHA       4                6            0.10324231
       ALPHA       4               11            0.05530873
       ALPHA       5               10           -0.08063954
       BETA        3                7            0.69090312
       BETA        4                6            0.10324231
       BETA        4               11            0.05530873
       BETA        5               10           -0.08063954
       -----------------------------------------------------


 EXCITED STATE  13  ENERGY=       -74.4558326722  S = 1.0  SPACE SYM = A1  

       -----------------------------------------------------
                   SINGLE EXCITATION              COEFFICENT
            FROM SPIN ORB     TO SPIN ORB
       -----------------------------------------------------
       ALPHA       2                6           -0.67663158
       ALPHA       2                9            0.09435401
       ALPHA       3                7            0.10543928
       ALPHA       4                9            0.07417311
       ALPHA       5               10           -0.08752816
       BETA        2                6            0.67663158
       BETA        2                9           -0.09435401
       BETA        3                7           -0.10543928
       BETA        4                9           -0.07417311
       BETA        5               10            0.08752816
       -----------------------------------------------------


 EXCITED STATE  14  ENERGY=       -74.3678324132  S = 1.0  SPACE SYM = A2  

       -----------------------------------------------------
                   SINGLE EXCITATION              COEFFICENT
            FROM SPIN ORB     TO SPIN ORB
       -----------------------------------------------------
       ALPHA       5                7           -0.09343652
       ALPHA       5                8            0.70042702
       BETA        5                7            0.09343652
       BETA        5                8           -0.70042702
       -----------------------------------------------------


 EXCITED STATE  15  ENERGY=       -74.3602562157  S = 1.0  SPACE SYM = B2  

       -----------------------------------------------------
                   SINGLE EXCITATION              COEFFICENT
            FROM SPIN ORB     TO SPIN ORB
       -----------------------------------------------------
       ALPHA       2                7            0.66646727
       ALPHA       2                8            0.12100329
       ALPHA       2               12           -0.06837348
       ALPHA       3                6           -0.08741507
       ALPHA       3                9           -0.13747306
       ALPHA       4                8            0.09811391
       BETA        2                7           -0.66646727
       BETA        2                8           -0.12100329
       BETA        2               12            0.06837348
       BETA        3                6            0.08741507
       BETA        3                9            0.13747306
       BETA        4                8           -0.09811391
       -----------------------------------------------------


 EXCITED STATE  16  ENERGY=       -74.3543536018  S = 0.0  SPACE SYM = A2  

       -----------------------------------------------------
                   SINGLE EXCITATION              COEFFICENT
            FROM SPIN ORB     TO SPIN ORB
       -----------------------------------------------------
       ALPHA       5                7           -0.08108501
       ALPHA       5                8            0.70189232
       BETA        5                7           -0.08108501
       BETA        5                8            0.70189232
       -----------------------------------------------------


 EXCITED STATE  17  ENERGY=       -74.3481588447  S = 0.0  SPACE SYM = A1  

       -----------------------------------------------------
                   SINGLE EXCITATION              COEFFICENT
            FROM SPIN ORB     TO SPIN ORB
       -----------------------------------------------------
       ALPHA       2                6           -0.69464567
       ALPHA       4                9           -0.07454080
       ALPHA       5               10            0.07912552
       BETA        2                6           -0.69464567
       BETA        4                9           -0.07454080
       BETA        5               10            0.07912552
       -----------------------------------------------------


 EXCITED STATE  18  ENERGY=       -74.3413941301  S = 1.0  SPACE SYM = B2  

       -----------------------------------------------------
                   SINGLE EXCITATION              COEFFICENT
            FROM SPIN ORB     TO SPIN ORB
       -----------------------------------------------------
       ALPHA       2                7            0.15043766
       ALPHA       3                9            0.20256804
       ALPHA       4                7            0.09529816
       ALPHA       4                8           -0.65107000
       BETA        2                7           -0.15043766
       BETA        3                9           -0.20256804
       BETA        4                7           -0.09529816
       BETA        4                8            0.65107000
       -----------------------------------------------------


 EXCITED STATE  19  ENERGY=       -74.3027825518  S = 1.0  SPACE SYM = A1  

       -----------------------------------------------------
                   SINGLE EXCITATION              COEFFICENT
            FROM SPIN ORB     TO SPIN ORB
       -----------------------------------------------------
       ALPHA       2                6            0.11719032
       ALPHA       2                9            0.10415693
       ALPHA       3                7            0.07898346
       ALPHA       3                8           -0.51562075
       ALPHA       4                9            0.44432977
       ALPHA       4               11            0.05367350
       BETA        2                6           -0.11719032
       BETA        2                9           -0.10415693
       BETA        3                7           -0.07898346
       BETA        3                8            0.51562075
       BETA        4                9           -0.44432977
       BETA        4               11           -0.05367350
       -----------------------------------------------------


 EXCITED STATE  20  ENERGY=       -74.2908101770  S = 1.0  SPACE SYM = B1  

       -----------------------------------------------------
                   SINGLE EXCITATION              COEFFICENT
            FROM SPIN ORB     TO SPIN ORB
       -----------------------------------------------------
       ALPHA       5                6            0.07792933
       ALPHA       5                9            0.69518307
       ALPHA       5               11            0.10150301
       BETA        5                6           -0.07792933
       BETA        5                9           -0.69518307
       BETA        5               11           -0.10150301
       -----------------------------------------------------


 EXCITED STATE  21  ENERGY=       -74.2859963295  S = 0.0  SPACE SYM = B2  

       -----------------------------------------------------
                   SINGLE EXCITATION              COEFFICENT
            FROM SPIN ORB     TO SPIN ORB
       -----------------------------------------------------
       ALPHA       2                7            0.67743061
       ALPHA       2                8            0.06549658
       ALPHA       4                8            0.18180025
       BETA        2                7            0.67743061
       BETA        2                8            0.06549658
       BETA        4                8            0.18180025
       -----------------------------------------------------


 EXCITED STATE  22  ENERGY=       -74.2492207647  S = 0.0  SPACE SYM = B1  

       -----------------------------------------------------
                   SINGLE EXCITATION              COEFFICENT
            FROM SPIN ORB     TO SPIN ORB
       -----------------------------------------------------
       ALPHA       5                6            0.05862182
       ALPHA       5                9            0.69584447
       ALPHA       5               11            0.10993915
       BETA        5                6            0.05862182
       BETA        5                9            0.69584447
       BETA        5               11            0.10993915
       -----------------------------------------------------


 EXCITED STATE  23  ENERGY=       -74.2328475953  S = 0.0  SPACE SYM = B2  

       -----------------------------------------------------
                   SINGLE EXCITATION              COEFFICENT
            FROM SPIN ORB     TO SPIN ORB
       -----------------------------------------------------
       ALPHA       2                7            0.17812415
       ALPHA       3                9           -0.12210467
       ALPHA       4                8           -0.67016955
       BETA        2                7            0.17812415
       BETA        3                9           -0.12210467
       BETA        4                8           -0.67016955
       -----------------------------------------------------


 EXCITED STATE  24  ENERGY=       -74.1772286890  S = 1.0  SPACE SYM = A1  

       -----------------------------------------------------
                   SINGLE EXCITATION              COEFFICENT
            FROM SPIN ORB     TO SPIN ORB
       -----------------------------------------------------
       ALPHA       3                7           -0.05309997
       ALPHA       3                8            0.45498828
       ALPHA       4                9            0.51705012
       ALPHA       4               11            0.12185963
       ALPHA       5               10           -0.05890492
       BETA        3                7            0.05309997
       BETA        3                8           -0.45498828
       BETA        4                9           -0.51705012
       BETA        4               11           -0.12185963
       BETA        5               10            0.05890492
       -----------------------------------------------------


 EXCITED STATE  25  ENERGY=       -74.1618391678  S = 0.0  SPACE SYM = A1  

       -----------------------------------------------------
                   SINGLE EXCITATION              COEFFICENT
            FROM SPIN ORB     TO SPIN ORB
       -----------------------------------------------------
       ALPHA       2                6           -0.06255135
       ALPHA       3                8            0.14458482
       ALPHA       4                9            0.67818929
       ALPHA       5               10            0.09826298
       BETA        2                6           -0.06255135
       BETA        3                8            0.14458482
       BETA        4                9            0.67818929
       BETA        5               10            0.09826298
       -----------------------------------------------------


 EXCITED STATE  26  ENERGY=       -74.1437446273  S = 1.0  SPACE SYM = B2  

       -----------------------------------------------------
                   SINGLE EXCITATION              COEFFICENT
            FROM SPIN ORB     TO SPIN ORB
       -----------------------------------------------------
       ALPHA       2                7            0.12371322
       ALPHA       2                8           -0.10108685
       ALPHA       3                6            0.06144710
       ALPHA       3                9            0.64254934
       ALPHA       4                8            0.23591840
       BETA        2                7           -0.12371322
       BETA        2                8            0.10108685
       BETA        3                6           -0.06144710
       BETA        3                9           -0.64254934
       BETA        4                8           -0.23591840
       -----------------------------------------------------


 EXCITED STATE  27  ENERGY=       -74.0888774386  S = 1.0  SPACE SYM = A1  

       -----------------------------------------------------
                   SINGLE EXCITATION              COEFFICENT
            FROM SPIN ORB     TO SPIN ORB
       -----------------------------------------------------
       ALPHA       2                6            0.08986621
       ALPHA       4                9           -0.08195073
       ALPHA       4               11            0.13658559
       ALPHA       5               10           -0.67866096
       BETA        2                6           -0.08986621
       BETA        4                9            0.08195073
       BETA        4               11           -0.13658559
       BETA        5               10            0.67866096
       -----------------------------------------------------


 EXCITED STATE  28  ENERGY=       -74.0728748088  S = 0.0  SPACE SYM = A1  

       -----------------------------------------------------
                   SINGLE EXCITATION              COEFFICENT
            FROM SPIN ORB     TO SPIN ORB
       -----------------------------------------------------
       ALPHA       2                9           -0.05214284
       ALPHA       3                8            0.68083102
       ALPHA       4                9           -0.13021015
       ALPHA       5               10           -0.12295717
       BETA        2                9           -0.05214284
       BETA        3                8            0.68083102
       BETA        4                9           -0.13021015
       BETA        5               10           -0.12295717
       -----------------------------------------------------


 EXCITED STATE  29  ENERGY=       -73.9826276135  S = 0.0  SPACE SYM = B2  

       -----------------------------------------------------
                   SINGLE EXCITATION              COEFFICENT
            FROM SPIN ORB     TO SPIN ORB
       -----------------------------------------------------
       ALPHA       3                9           -0.68889838
       ALPHA       3               11           -0.08225828
       ALPHA       4                8            0.11841104
       BETA        3                9           -0.68889838
       BETA        3               11           -0.08225828
       BETA        4                8            0.11841104
       -----------------------------------------------------


 EXCITED STATE  30  ENERGY=       -73.9569252430  S = 1.0  SPACE SYM = B1  

       -----------------------------------------------------
                   SINGLE EXCITATION              COEFFICENT
            FROM SPIN ORB     TO SPIN ORB
       -----------------------------------------------------
       ALPHA       4               10            0.55931022
       ALPHA       5                9            0.07586095
       ALPHA       5               11           -0.42281623
       BETA        4               10           -0.55931022
       BETA        5                9           -0.07586095
       BETA        5               11            0.42281623
       -----------------------------------------------------


 EXCITED STATE  31  ENERGY=       -73.9000850354  S = 1.0  SPACE SYM = A1  

       -----------------------------------------------------
                   SINGLE EXCITATION              COEFFICENT
            FROM SPIN ORB     TO SPIN ORB
       -----------------------------------------------------
       ALPHA       2               11            0.05876161
       ALPHA       4                9            0.11673803
       ALPHA       4               11           -0.67190974
       ALPHA       5               10           -0.15931995
       BETA        2               11           -0.05876161
       BETA        4                9           -0.11673803
       BETA        4               11            0.67190974
       BETA        5               10            0.15931995
       -----------------------------------------------------


 EXCITED STATE  32  ENERGY=       -73.8858484136  S = 0.0  SPACE SYM = B1  

       -----------------------------------------------------
                   SINGLE EXCITATION              COEFFICENT
            FROM SPIN ORB     TO SPIN ORB
       -----------------------------------------------------
       ALPHA       4               10            0.67155023
       ALPHA       5               11            0.21848923
       BETA        4               10            0.67155023
       BETA        5               11            0.21848923
       -----------------------------------------------------


 EXCITED STATE  33  ENERGY=       -73.8824483538  S = 1.0  SPACE SYM = B1  

       -----------------------------------------------------
                   SINGLE EXCITATION              COEFFICENT
            FROM SPIN ORB     TO SPIN ORB
       -----------------------------------------------------
       ALPHA       4               10            0.42938357
       ALPHA       5                9           -0.07324952
       ALPHA       5               11            0.55634526
       BETA        4               10           -0.42938357
       BETA        5                9            0.07324952
       BETA        5               11           -0.55634526
       -----------------------------------------------------


 EXCITED STATE  34  ENERGY=       -73.8750912418  S = 0.0  SPACE SYM = A1  

       -----------------------------------------------------
                   SINGLE EXCITATION              COEFFICENT
            FROM SPIN ORB     TO SPIN ORB
       -----------------------------------------------------
       ALPHA       3                8           -0.06520962
       ALPHA       3               12           -0.07413061
       ALPHA       4                9            0.11199231
       ALPHA       4               11           -0.41740771
       ALPHA       5               10           -0.54706796
       BETA        3                8           -0.06520962
       BETA        3               12           -0.07413061
       BETA        4                9            0.11199231
       BETA        4               11           -0.41740771
       BETA        5               10           -0.54706796
       -----------------------------------------------------


 EXCITED STATE  35  ENERGY=       -73.8611599249  S = 0.0  SPACE SYM = B1  

       -----------------------------------------------------
                   SINGLE EXCITATION              COEFFICENT
            FROM SPIN ORB     TO SPIN ORB
       -----------------------------------------------------
       ALPHA       4               10            0.22007934
       ALPHA       5                9            0.10905372
       ALPHA       5               11           -0.66255209
       BETA        4               10            0.22007934
       BETA        5                9            0.10905372
       BETA        5               11           -0.66255209
       -----------------------------------------------------


 EXCITED STATE  36  ENERGY=       -73.7696392924  S = 1.0  SPACE SYM = A2  

       -----------------------------------------------------
                   SINGLE EXCITATION              COEFFICENT
            FROM SPIN ORB     TO SPIN ORB
       -----------------------------------------------------
       ALPHA       3               10           -0.30144737
       ALPHA       5                7            0.06110558
       ALPHA       5               12            0.63590388
       BETA        3               10            0.30144737
       BETA        5                7           -0.06110558
       BETA        5               12           -0.63590388
       -----------------------------------------------------


 EXCITED STATE  37  ENERGY=       -73.7217015168  S = 0.0  SPACE SYM = A2  

       -----------------------------------------------------
                   SINGLE EXCITATION              COEFFICENT
            FROM SPIN ORB     TO SPIN ORB
       -----------------------------------------------------
       ALPHA       3               10            0.10262102
       ALPHA       5                7            0.05732849
       ALPHA       5               12            0.69641751
       BETA        3               10            0.10262102
       BETA        5                7            0.05732849
       BETA        5               12            0.69641751
       -----------------------------------------------------


 EXCITED STATE  38  ENERGY=       -73.7031531842  S = 1.0  SPACE SYM = A2  

       -----------------------------------------------------
                   SINGLE EXCITATION              COEFFICENT
            FROM SPIN ORB     TO SPIN ORB
       -----------------------------------------------------
       ALPHA       3               10           -0.63960409
       ALPHA       5               12           -0.30037306
       BETA        3               10            0.63960409
       BETA        5               12            0.30037306
       -----------------------------------------------------


 EXCITED STATE  39  ENERGY=       -73.6922555971  S = 1.0  SPACE SYM = B2  

       -----------------------------------------------------
                   SINGLE EXCITATION              COEFFICENT
            FROM SPIN ORB     TO SPIN ORB
       -----------------------------------------------------
       ALPHA       3               11            0.21627170
       ALPHA       4                7            0.05526364
       ALPHA       4               12            0.66658712
       BETA        3               11           -0.21627170
       BETA        4                7           -0.05526364
       BETA        4               12           -0.66658712
       -----------------------------------------------------


 EXCITED STATE  40  ENERGY=       -73.6854273577  S = 0.0  SPACE SYM = A2  

       -----------------------------------------------------
                   SINGLE EXCITATION              COEFFICENT
            FROM SPIN ORB     TO SPIN ORB
       -----------------------------------------------------
       ALPHA       3               10            0.69961437
       ALPHA       5               12           -0.10241675
       BETA        3               10            0.69961437
       BETA        5               12           -0.10241675
       -----------------------------------------------------


 EXCITED STATE  41  ENERGY=       -73.6420941176  S = 0.0  SPACE SYM = B2  

       -----------------------------------------------------
                   SINGLE EXCITATION              COEFFICENT
            FROM SPIN ORB     TO SPIN ORB
       -----------------------------------------------------
       ALPHA       3               11            0.06191763
       ALPHA       4                7           -0.05410076
       ALPHA       4               12           -0.69951778
       BETA        3               11            0.06191763
       BETA        4                7           -0.05410076
       BETA        4               12           -0.69951778
       -----------------------------------------------------


 EXCITED STATE  42  ENERGY=       -73.6074253794  S = 1.0  SPACE SYM = B2  

       -----------------------------------------------------
                   SINGLE EXCITATION              COEFFICENT
            FROM SPIN ORB     TO SPIN ORB
       -----------------------------------------------------
       ALPHA       2                8           -0.09240479
       ALPHA       3               11           -0.66712706
       ALPHA       4               12            0.21182355
       BETA        2                8            0.09240479
       BETA        3               11            0.66712706
       BETA        4               12           -0.21182355
       -----------------------------------------------------


 EXCITED STATE  43  ENERGY=       -73.6030061318  S = 0.0  SPACE SYM = A1  

       -----------------------------------------------------
                   SINGLE EXCITATION              COEFFICENT
            FROM SPIN ORB     TO SPIN ORB
       -----------------------------------------------------
       ALPHA       2                6           -0.06138572
       ALPHA       2                9           -0.14842892
       ALPHA       3                7           -0.07087745
       ALPHA       3                8           -0.08918081
       ALPHA       3               12           -0.40739273
       ALPHA       4               11            0.46676178
       ALPHA       5               10           -0.27494595
       BETA        2                6           -0.06138572
       BETA        2                9           -0.14842892
       BETA        3                7           -0.07087745
       BETA        3                8           -0.08918081
       BETA        3               12           -0.40739273
       BETA        4               11            0.46676178
       BETA        5               10           -0.27494595
       -----------------------------------------------------


 EXCITED STATE  44  ENERGY=       -73.5814948144  S = 0.0  SPACE SYM = B2  

       -----------------------------------------------------
                   SINGLE EXCITATION              COEFFICENT
            FROM SPIN ORB     TO SPIN ORB
       -----------------------------------------------------
       ALPHA       3                9            0.08628551
       ALPHA       3               11           -0.69728024
       ALPHA       4               12           -0.05552876
       BETA        3                9            0.08628551
       BETA        3               11           -0.69728024
       BETA        4               12           -0.05552876
       -----------------------------------------------------


 EXCITED STATE  45  ENERGY=       -73.5470589449  S = 1.0  SPACE SYM = B2  

       -----------------------------------------------------
                   SINGLE EXCITATION              COEFFICENT
            FROM SPIN ORB     TO SPIN ORB
       -----------------------------------------------------
       ALPHA       2                7           -0.09371940
       ALPHA       2                8            0.67886820
       ALPHA       3                9            0.13763227
       ALPHA       3               11           -0.07342434
       ALPHA       4               12            0.06435813
       BETA        2                7            0.09371940
       BETA        2                8           -0.67886820
       BETA        3                9           -0.13763227
       BETA        3               11            0.07342434
       BETA        4               12           -0.06435813
       -----------------------------------------------------


 EXCITED STATE  46  ENERGY=       -73.5221876742  S = 1.0  SPACE SYM = A1  

       -----------------------------------------------------
                   SINGLE EXCITATION              COEFFICENT
            FROM SPIN ORB     TO SPIN ORB
       -----------------------------------------------------
       ALPHA       2                6           -0.05771797
       ALPHA       2                9           -0.28250236
       ALPHA       3                8           -0.07788377
       ALPHA       3               12           -0.63597103
       BETA        2                6            0.05771797
       BETA        2                9            0.28250236
       BETA        3                8            0.07788377
       BETA        3               12            0.63597103
       -----------------------------------------------------


 EXCITED STATE  47  ENERGY=       -73.4975266805  S = 0.0  SPACE SYM = B2  

       -----------------------------------------------------
                   SINGLE EXCITATION              COEFFICENT
            FROM SPIN ORB     TO SPIN ORB
       -----------------------------------------------------
       ALPHA       2                7           -0.06761396
       ALPHA       2                8            0.69869054
       BETA        2                7           -0.06761396
       BETA        2                8            0.69869054
       -----------------------------------------------------


 EXCITED STATE  48  ENERGY=       -73.4709842487  S = 1.0  SPACE SYM = A1  

       -----------------------------------------------------
                   SINGLE EXCITATION              COEFFICENT
            FROM SPIN ORB     TO SPIN ORB
       -----------------------------------------------------
       ALPHA       2                6           -0.07032667
       ALPHA       2                9           -0.62423085
       ALPHA       2               11           -0.08182543
       ALPHA       3                8           -0.08109135
       ALPHA       3               12            0.29142634
       ALPHA       4                9            0.05648356
       ALPHA       4               11           -0.05715733
       BETA        2                6            0.07032667
       BETA        2                9            0.62423085
       BETA        2               11            0.08182543
       BETA        3                8            0.08109135
       BETA        3               12           -0.29142634
       BETA        4                9           -0.05648356
       BETA        4               11            0.05715733
       -----------------------------------------------------


 EXCITED STATE  49  ENERGY=       -73.4167811450  S = 0.0  SPACE SYM = A1  

       -----------------------------------------------------
                   SINGLE EXCITATION              COEFFICENT
            FROM SPIN ORB     TO SPIN ORB
       -----------------------------------------------------
       ALPHA       2                9           -0.65797069
       ALPHA       2               11           -0.06207860
       ALPHA       3               12            0.24167846
       BETA        2                9           -0.65797069
       BETA        2               11           -0.06207860
       BETA        3               12            0.24167846
       -----------------------------------------------------


 EXCITED STATE  50  ENERGY=       -73.1832512848  S = 1.0  SPACE SYM = B1  

       -----------------------------------------------------
                   SINGLE EXCITATION              COEFFICENT
            FROM SPIN ORB     TO SPIN ORB
       -----------------------------------------------------
       ALPHA       2               10            0.68777231
       ALPHA       5               13           -0.15470176
       BETA        2               10           -0.68777231
       BETA        5               13            0.15470176
       -----------------------------------------------------


 EXCITED STATE  51  ENERGY=       -73.1153506715  S = 0.0  SPACE SYM = A1  

       -----------------------------------------------------
                   SINGLE EXCITATION              COEFFICENT
            FROM SPIN ORB     TO SPIN ORB
       -----------------------------------------------------
       ALPHA       2                6           -0.06768667
       ALPHA       2                9            0.19497201
       ALPHA       2               11           -0.07897872
       ALPHA       2               13           -0.07595177
       ALPHA       3                7           -0.05115858
       ALPHA       3               12            0.51017479
       ALPHA       4               11            0.30506573
       ALPHA       4               13            0.06650968
       ALPHA       5               10           -0.28676006
       BETA        2                6           -0.06768667
       BETA        2                9            0.19497201
       BETA        2               11           -0.07897872
       BETA        2               13           -0.07595177
       BETA        3                7           -0.05115858
       BETA        3               12            0.51017479
       BETA        4               11            0.30506573
       BETA        4               13            0.06650968
       BETA        5               10           -0.28676006
       -----------------------------------------------------


 EXCITED STATE  52  ENERGY=       -73.0812283625  S = 0.0  SPACE SYM = B1  

       -----------------------------------------------------
                   SINGLE EXCITATION              COEFFICENT
            FROM SPIN ORB     TO SPIN ORB
       -----------------------------------------------------
       ALPHA       2               10           -0.70559702
       BETA        2               10           -0.70559702
       -----------------------------------------------------


 EXCITED STATE  53  ENERGY=       -73.0548089457  S = 1.0  SPACE SYM = A1  

       -----------------------------------------------------
                   SINGLE EXCITATION              COEFFICENT
            FROM SPIN ORB     TO SPIN ORB
       -----------------------------------------------------
       ALPHA       2                9           -0.08330173
       ALPHA       2               11            0.68538729
       ALPHA       4               11            0.06186096
       ALPHA       4               13            0.12820691
       BETA        2                9            0.08330173
       BETA        2               11           -0.68538729
       BETA        4               11           -0.06186096
       BETA        4               13           -0.12820691
       -----------------------------------------------------


[...]
 TRANSITION DIPOLE =    0.000000    1.410156    0.000000    1.410156 E*BOHR
 TRANSITION DIPOLE =    0.000000    3.584287    0.000000    3.584287 DEBYE
 OSCILLATOR STRENGTH =   -0.000000
 EINSTEIN COEFFICIENTS: A= -1.3774E-38 1/SEC; B=  8.0703E+08 SEC/G

 TRANSITION FROM STATE 93, MULT= 3 TO STATE 98, MULT= 1 IS OPTICALLY INACTIVE.

 TRANSITION BETWEEN EXCITED STATES  93 AND 99

 STATE MULTIPLICITIES=  3  3
 STATE ENERGIES =        -75.5854099068      -75.5854099068
 TRANSITION ENERGY =  4.4847E-01 [1/SEC] =        0.00 [1/CM] =        0.00 [EV]
                            X           Y           Z           NORM
 TRANSITION DIPOLE =    0.000000    0.038212    0.000000    0.038212 E*BOHR
 TRANSITION DIPOLE =    0.000000    0.097126    0.000000    0.097126 DEBYE
 OSCILLATOR STRENGTH =    0.000000
 EINSTEIN COEFFICIENTS: A=  9.9037E-42 1/SEC; B=  5.9259E+05 SEC/G

 TRANSITION FROM STATE 93, MULT= 3 TO STATE100, MULT= 1 IS OPTICALLY INACTIVE.

 EXPECTATION VALUE DIPOLE MOMENT FOR EXCITED STATE 94

 STATE MULTIPLICITY =   1
 STATE ENERGY =        -75.5854099068
                            X           Y           Z           NORM
      STATE DIPOLE =    0.000000   -0.000000    0.235273    0.235273 E*BOHR
      STATE DIPOLE =    0.000000   -0.000000    0.598008    0.598008 DEBYE

 TRANSITION FROM STATE 94, MULT= 1 TO STATE 95, MULT= 3 IS OPTICALLY INACTIVE.

 TRANSITION BETWEEN EXCITED STATES  94 AND 96

 STATE MULTIPLICITIES=  1  1
 STATE ENERGIES =        -75.5854099068      -75.5854099068
 TRANSITION ENERGY = -7.6744E-02 [1/SEC] =       -0.00 [1/CM] =       -0.00 [EV]
                            X           Y           Z           NORM
 TRANSITION DIPOLE =    0.000000   -0.000000    0.000000    0.000000 E*BOHR
 TRANSITION DIPOLE =    0.000000   -0.000000    0.000000    0.000000 DEBYE
 OSCILLATOR STRENGTH =   -0.000000
 EINSTEIN COEFFICIENTS: A= -1.3764E-72 1/SEC; B=  1.6434E-23 SEC/G

 TRANSITION FROM STATE 94, MULT= 1 TO STATE 97, MULT= 3 IS OPTICALLY INACTIVE.

 TRANSITION BETWEEN EXCITED STATES  94 AND 98

 STATE MULTIPLICITIES=  1  1
 STATE ENERGIES =        -75.5854099068      -75.5854099068
 TRANSITION ENERGY =  7.4885E-01 [1/SEC] =        0.00 [1/CM] =        0.00 [EV]
                            X           Y           Z           NORM
 TRANSITION DIPOLE =    0.000000    1.462430    0.000000    1.462430 E*BOHR
 TRANSITION DIPOLE =    0.000000    3.717156    0.000000    3.717156 DEBYE
 OSCILLATOR STRENGTH =    0.000000
 EINSTEIN COEFFICIENTS: A=  6.7538E-38 1/SEC; B=  8.6798E+08 SEC/G

 TRANSITION FROM STATE 94, MULT= 1 TO STATE 99, MULT= 3 IS OPTICALLY INACTIVE.

 TRANSITION BETWEEN EXCITED STATES  94 AND100

 STATE MULTIPLICITIES=  1  1
 STATE ENERGIES =        -75.5854099068      -75.5854099068
 TRANSITION ENERGY =  3.2583E-02 [1/SEC] =        0.00 [1/CM] =        0.00 [EV]
                            X           Y           Z           NORM
 TRANSITION DIPOLE =    0.000000   -0.001059    0.000000    0.001059 E*BOHR
 TRANSITION DIPOLE =    0.000000   -0.002691    0.000000    0.002691 DEBYE
 OSCILLATOR STRENGTH =    0.000000
 EINSTEIN COEFFICIENTS: A=  2.9161E-48 1/SEC; B=  4.5495E+02 SEC/G

 EXPECTATION VALUE DIPOLE MOMENT FOR EXCITED STATE 95

 STATE MULTIPLICITY =   3
 STATE ENERGY =        -75.5854099068
                            X           Y           Z           NORM
      STATE DIPOLE =   -0.000000   -0.000000    0.410639    0.410639 E*BOHR
      STATE DIPOLE =   -0.000000   -0.000000    1.043747    1.043747 DEBYE

 TRANSITION FROM STATE 95, MULT= 3 TO STATE 96, MULT= 1 IS OPTICALLY INACTIVE.

 TRANSITION BETWEEN EXCITED STATES  95 AND 97

 STATE MULTIPLICITIES=  3  3
 STATE ENERGIES =        -75.5854099068      -75.5854099068
 TRANSITION ENERGY =  1.0694E+00 [1/SEC] =        0.00 [1/CM] =        0.00 [EV]
                            X           Y           Z           NORM
 TRANSITION DIPOLE =    0.080893    0.000000   -0.000000    0.080893 E*BOHR
 TRANSITION DIPOLE =    0.205610    0.000000   -0.000000    0.205610 DEBYE
 OSCILLATOR STRENGTH =    0.000000
 EINSTEIN COEFFICIENTS: A=  6.0176E-40 1/SEC; B=  2.6557E+06 SEC/G

 TRANSITION FROM STATE 95, MULT= 3 TO STATE 98, MULT= 1 IS OPTICALLY INACTIVE.

 TRANSITION BETWEEN EXCITED STATES  95 AND 99

 STATE MULTIPLICITIES=  3  3
 STATE ENERGIES =        -75.5854099068      -75.5854099068
 TRANSITION ENERGY =  1.9695E+00 [1/SEC] =        0.00 [1/CM] =        0.00 [EV]
                            X           Y           Z           NORM
 TRANSITION DIPOLE =    0.150411   -0.000000    0.000000    0.150411 E*BOHR
 TRANSITION DIPOLE =    0.382310   -0.000000    0.000000    0.382310 DEBYE
 OSCILLATOR STRENGTH =    0.000000
 EINSTEIN COEFFICIENTS: A=  1.2996E-38 1/SEC; B=  9.1816E+06 SEC/G

 TRANSITION FROM STATE 95, MULT= 3 TO STATE100, MULT= 1 IS OPTICALLY INACTIVE.

 EXPECTATION VALUE DIPOLE MOMENT FOR EXCITED STATE 96

 STATE MULTIPLICITY =   1
 STATE ENERGY =        -75.5854099068
                            X           Y           Z           NORM
      STATE DIPOLE =   -0.000000    0.000000    0.401729    0.401729 E*BOHR
      STATE DIPOLE =   -0.000000    0.000000    1.021102    1.021102 DEBYE

 TRANSITION FROM STATE 96, MULT= 1 TO STATE 97, MULT= 3 IS OPTICALLY INACTIVE.

 TRANSITION BETWEEN EXCITED STATES  96 AND 98

 STATE MULTIPLICITIES=  1  1
 STATE ENERGIES =        -75.5854099068      -75.5854099068
 TRANSITION ENERGY =  8.2560E-01 [1/SEC] =        0.00 [1/CM] =        0.00 [EV]
                            X           Y           Z           NORM
 TRANSITION DIPOLE =    0.061129    0.000000   -0.000000    0.061129 E*BOHR
 TRANSITION DIPOLE =    0.155376    0.000000   -0.000000    0.155376 DEBYE
 OSCILLATOR STRENGTH =    0.000000
 EINSTEIN COEFFICIENTS: A=  1.5813E-40 1/SEC; B=  1.5165E+06 SEC/G

 TRANSITION FROM STATE 96, MULT= 1 TO STATE 99, MULT= 3 IS OPTICALLY INACTIVE.

 TRANSITION BETWEEN EXCITED STATES  96 AND100

 STATE MULTIPLICITIES=  1  1
 STATE ENERGIES =        -75.5854099068      -75.5854099068
 TRANSITION ENERGY =  1.0933E-01 [1/SEC] =        0.00 [1/CM] =        0.00 [EV]
                            X           Y           Z           NORM
 TRANSITION DIPOLE =    0.148945   -0.000000    0.000000    0.148945 E*BOHR
 TRANSITION DIPOLE =    0.378584   -0.000000    0.000000    0.378584 DEBYE
 OSCILLATOR STRENGTH =    0.000000
 EINSTEIN COEFFICIENTS: A=  2.1800E-42 1/SEC; B=  9.0035E+06 SEC/G

 EXPECTATION VALUE DIPOLE MOMENT FOR EXCITED STATE 97

 STATE MULTIPLICITY =   3
 STATE ENERGY =        -75.5854099068
                            X           Y           Z           NORM
      STATE DIPOLE =    0.000000    0.000000    0.213225    0.213225 E*BOHR
      STATE DIPOLE =    0.000000    0.000000    0.541968    0.541968 DEBYE

 TRANSITION FROM STATE 97, MULT= 3 TO STATE 98, MULT= 1 IS OPTICALLY INACTIVE.

 TRANSITION BETWEEN EXCITED STATES  97 AND 99

 STATE MULTIPLICITIES=  3  3
 STATE ENERGIES =        -75.5854099068      -75.5854099068
 TRANSITION ENERGY =  9.0008E-01 [1/SEC] =        0.00 [1/CM] =        0.00 [EV]
                            X           Y           Z           NORM
 TRANSITION DIPOLE =   -0.000000   -0.000000    0.118809    0.118809 E*BOHR
 TRANSITION DIPOLE =   -0.000000   -0.000000    0.301986    0.301986 DEBYE
 OSCILLATOR STRENGTH =    0.000000
 EINSTEIN COEFFICIENTS: A=  7.7403E-40 1/SEC; B=  5.7287E+06 SEC/G

 TRANSITION FROM STATE 97, MULT= 3 TO STATE100, MULT= 1 IS OPTICALLY INACTIVE.

 EXPECTATION VALUE DIPOLE MOMENT FOR EXCITED STATE 98

 STATE MULTIPLICITY =   1
 STATE ENERGY =        -75.5854099068
                            X           Y           Z           NORM
      STATE DIPOLE =    0.000000    0.000000    0.159022    0.159022 E*BOHR
      STATE DIPOLE =    0.000000    0.000000    0.404196    0.404196 DEBYE

 TRANSITION FROM STATE 98, MULT= 1 TO STATE 99, MULT= 3 IS OPTICALLY INACTIVE.

 TRANSITION BETWEEN EXCITED STATES  98 AND100

 STATE MULTIPLICITIES=  1  1
 STATE ENERGIES =        -75.5854099068      -75.5854099068
 TRANSITION ENERGY = -7.1627E-01 [1/SEC] =       -0.00 [1/CM] =       -0.00 [EV]
                            X           Y           Z           NORM
 TRANSITION DIPOLE =   -0.000000   -0.000000    0.044333    0.044333 E*BOHR
 TRANSITION DIPOLE =   -0.000000   -0.000000    0.112685    0.112685 DEBYE
 OSCILLATOR STRENGTH =   -0.000000
 EINSTEIN COEFFICIENTS: A= -5.4312E-41 1/SEC; B=  7.9765E+05 SEC/G

 EXPECTATION VALUE DIPOLE MOMENT FOR EXCITED STATE 99

 STATE MULTIPLICITY =   3
 STATE ENERGY =        -75.5854099068
                            X           Y           Z           NORM
      STATE DIPOLE =   -0.000000    0.000000    0.197056    0.197056 E*BOHR
      STATE DIPOLE =   -0.000000    0.000000    0.500869    0.500869 DEBYE

 TRANSITION FROM STATE 99, MULT= 3 TO STATE100, MULT= 1 IS OPTICALLY INACTIVE.

 EXPECTATION VALUE DIPOLE MOMENT FOR EXCITED STATE100

 STATE MULTIPLICITY =   1
 STATE ENERGY =        -75.5854099068
                            X           Y           Z           NORM
      STATE DIPOLE =    0.000000    0.000000    0.138261    0.138261 E*BOHR
      STATE DIPOLE =    0.000000    0.000000    0.351426    0.351426 DEBYE
 -CIS- LAGRANGIAN              TOOK      0.268 SECONDS

     -------------------------------------------------------------
       SOLVE THE COUPLED-PERTURBED HARTREE-FOCK EQUATIONS IN THE
                          ATOMIC-ORBITAL BASIS
     -------------------------------------------------------------

 PRECONDITIONED CONJUGATE GRADIENT SOLVER     CONV. TOLERANCE=5.00E-05
 ITER    RESPONSE ERROR        IMPROVED
   1       5.36177E-01             1
   2       5.49724E-02             1
   3       6.13189E-03             1
   4       1.20760E-03             1
   5       1.58812E-04             1
   6       2.57451E-05             1
 THE CPHF HAS CONVERGED AFTER  6 ITERATIONS.
 IT REQUIRED     6 FOCK-LIKE BUILDS TO FIND THE   1 SYMMETRY UNIQUE RESPONSES.

 -CIS- CPHF EQUATIONS          TOOK      0.001 SECONDS
 -CIS- ENERGY WEIGHTED DENSITY TOOK      0.000 SECONDS

 CIS NATURAL ORBITAL OCCUPATION NUMBERS FOR EXCITED STATE    2 ARE
  2.0191 2.0057 2.0009 2.0000 1.0000 0.9967 0.0000-0.0000-0.0000-0.0000
 -0.0004-0.0029-0.0191
 THERE ARE     9.0257 ELECTRONS IN PRINCIPAL CIS NATURAL ORBITALS.
 THERE ARE     0.9743 ELECTRONS IN SECONDARY CIS NATURAL ORBITALS.

          --------------------
          CIS NATURAL ORBITALS
          --------------------

                      1          2          3          4          5

                    2.0191     2.0057     2.0009     2.0000     1.0000

    1  O  1  S    0.000000  -0.079030   0.207193  -0.990047   0.000000
    2  O  1  S    0.000000   0.080968  -0.246296  -0.088126   0.000000
    3  O  1  X    0.000000   0.000000   0.000000   0.000000   0.517077
    4  O  1  Y   -0.450323   0.000000   0.000000   0.000000   0.000000
    5  O  1  Z    0.000000   0.447322   0.214036  -0.010710   0.000000
    6  O  1  S    0.000000   0.148708  -0.799644   0.061890   0.000000
    7  O  1  X    0.000000   0.000000   0.000000   0.000000   0.636048
    8  O  1  Y   -0.424580   0.000000   0.000000   0.000000   0.000000
    9  O  1  Z    0.000000   0.456815   0.219668  -0.002102   0.000000
   10  H  2  S    0.200511   0.152048  -0.014578  -0.002528   0.000000
   11  H  2  S    0.110299   0.069767   0.060596  -0.008076   0.000000
   12  H  3  S   -0.200511   0.152048  -0.014578  -0.002528   0.000000
   13  H  3  S   -0.110299   0.069767   0.060596  -0.008076   0.000000

                      6          7          8          9         10

                    0.9967     0.0000    -0.0000    -0.0000    -0.0000

    1  O  1  S    0.107449   0.000000   0.000000  -0.024584   0.000000
    2  O  1  S   -0.077960   0.000000   0.000000  -0.719925   0.000000
    3  O  1  X    0.000000   0.000000   0.000000   0.000000   1.031396
    4  O  1  Y    0.000000  -0.874695   0.436588   0.000000   0.000000
    5  O  1  Z   -0.260108   0.000000   0.000000  -0.473954   0.000000
    6  O  1  S   -0.961743   0.000000   0.000000   1.209458   0.000000
    7  O  1  X    0.000000   0.000000   0.000000   0.000000  -0.962596
    8  O  1  Y    0.000000   1.254236  -0.916174   0.000000   0.000000
    9  O  1  Z   -0.395687   0.000000   0.000000   1.097841   0.000000
   10  H  2  S    0.107209  -0.271406  -0.875449  -0.928120   0.000000
   11  H  2  S    0.812210   1.110303   0.565956   0.076191   0.000000
   12  H  3  S    0.107209   0.271406   0.875449  -0.928120   0.000000
   13  H  3  S    0.812210  -1.110303  -0.565956   0.076191   0.000000

                     11         12         13

                   -0.0004    -0.0029    -0.0191

    1  O  1  S   -0.106424   0.007202   0.000000
    2  O  1  S    1.478569  -0.035148   0.000000
    3  O  1  X    0.000000   0.000000   0.000000
    4  O  1  Y    0.000000   0.000000  -0.513896
    5  O  1  Z   -0.158406  -0.897316   0.000000
    6  O  1  S   -1.635562   0.216444   0.000000
    7  O  1  X    0.000000   0.000000   0.000000
    8  O  1  Y    0.000000   0.000000  -0.546468
    9  O  1  Z    0.111957   0.721215   0.000000
   10  H  2  S   -0.207912   0.462787  -0.354680
   11  H  2  S    0.474554  -0.480347  -0.760631
   12  H  3  S   -0.207912   0.462787   0.354680
   13  H  3  S    0.474554  -0.480347   0.760631

 THE CIS NATURAL ORBITALS HAVE BEEN PUNCHED.

 .... DONE WITH CIS ENERGY + 1-PARTICLE DENSITY ....

 CPU     0: STEP CPU TIME=     0.43 TOTAL CPU TIME=          0.7 (      0.0 MIN)
 TOTAL WALL CLOCK TIME=          1.5 SECONDS, CPU UTILIZATION IS    46.56%

     -------------------------------------------------------------
     CIS   PROPERTIES...FOR THE WAVEFUNCTION OF EXCITED STATE    2
               USING THE RESPONSE (OR RELAXED) DENSITY
     -------------------------------------------------------------

          -----------------
          ENERGY COMPONENTS
          -----------------

         WAVEFUNCTION NORMALIZATION =       1.0000000000

                ONE ELECTRON ENERGY =    -120.9087441400
                TWO ELECTRON ENERGY =      36.4883998798
           NUCLEAR REPULSION ENERGY =       9.1892102916
                                      ------------------
                       TOTAL ENERGY =     -75.2311339687

 ELECTRON-ELECTRON POTENTIAL ENERGY =      36.4883998798
  NUCLEUS-ELECTRON POTENTIAL ENERGY =    -196.6114413989
   NUCLEUS-NUCLEUS POTENTIAL ENERGY =       9.1892102916
                                      ------------------
             TOTAL POTENTIAL ENERGY =    -150.9338312276
               TOTAL KINETIC ENERGY =      75.7026972589
                 VIRIAL RATIO (V/T) =       1.9937708522
 MEMORY ASSIGNEMENT
 I10, I20, I21, I30, I31, I40, I41, I60 =
****************************************************************
 LAST = ********

          ---------------------------------------
          MULLIKEN AND LOWDIN POPULATION ANALYSES
          ---------------------------------------
 MEMORY ASSIGNMENT
 I10, I30, I40, I50, I60, I70, I41, I51, I61, I71 =
********************************************************************************
 LAST = ********

          ----- MULLIKEN ATOMIC OVERLAP POPULATIONS -----
          (OFF-DIAGONAL ELEMENTS NEED TO BE MULTIPLIED BY 2)

                      1          2          3          4          5

    1  O  1  S    2.070314
    2  O  1  S    0.010727   0.155184
    3  O  1  X    0.000000  -0.000000   0.267366
    4  O  1  Y   -0.000000   0.000000   0.000000   0.404413
    5  O  1  Z    0.000000  -0.000000   0.000000   0.000000   0.558315
    6  O  1  S   -0.106321   0.357506  -0.000000   0.000000   0.000000
    7  O  1  X    0.000000  -0.000000   0.164046   0.000000   0.000000
    8  O  1  Y   -0.000000  -0.000000   0.000000   0.189875   0.000000
    9  O  1  Z   -0.000000  -0.000000   0.000000   0.000000   0.303467
   10  H  2  S   -0.000311   0.003898   0.000000   0.030099   0.013004
   11  H  2  S    0.007121  -0.024359   0.000000   0.010067  -0.008907
   12  H  3  S   -0.000311   0.003898   0.000000   0.030099   0.013004
   13  H  3  S    0.007121  -0.024359   0.000000   0.010067  -0.008907

                      6          7          8          9         10

    6  O  1  S    2.252091
    7  O  1  X   -0.000000   0.404558
    8  O  1  Y    0.000000   0.000000   0.358282
    9  O  1  Z    0.000000   0.000000   0.000000   0.669645
   10  H  2  S   -0.012700   0.000000   0.078348   0.030996   0.136402
   11  H  2  S   -0.520675   0.000000   0.035911  -0.062093   0.094648
   12  H  3  S   -0.012700   0.000000   0.078348   0.030996  -0.000601
   13  H  3  S   -0.520675   0.000000   0.035911  -0.062093   0.012644

                     11         12         13

   11  H  2  S    0.687522
   12  H  3  S    0.012644   0.136402
   13  H  3  S    0.311911   0.094648   0.687522

               ----- POPULATIONS IN EACH AO -----
                             MULLIKEN      LOWDIN
              1  O  1  S      1.98834     1.98431
              2  O  1  S      0.48250     0.69096
              3  O  1  X      0.43141     0.44055
              4  O  1  Y      0.67462     0.64560
              5  O  1  Z      0.86997     0.87492
              6  O  1  S      1.43653     1.13705
              7  O  1  X      0.56860     0.55946
              8  O  1  Y      0.77667     0.76534
              9  O  1  Z      0.91092     0.92775
             10  H  2  S      0.38643     0.40530
             11  H  2  S      0.54379     0.58173
             12  H  3  S      0.38643     0.40530
             13  H  3  S      0.54379     0.58173

          ----- MULLIKEN ATOMIC OVERLAP POPULATIONS -----
          (OFF-DIAGONAL ELEMENTS NEED TO BE MULTIPLIED BY 2)

             1           2           3

    1    8.9787685
    2   -0.4196015   1.0132202
    3   -0.4196015   0.3365987   1.0132202

          TOTAL MULLIKEN AND LOWDIN ATOMIC POPULATIONS
       ATOM         MULL.POP.                    LOW.POP.

          TOTAL MULLIKEN AND LOWDIN ATOMIC POPULATIONS
       ATOM         MULL.POP.    CHARGE          LOW.POP.     CHARGE
    1 OXYGEN        8.139565                     8.025937
    1 OXYGEN        8.139565   -0.139565         8.025937   -0.025937
    2 HYDROGEN      0.930217                     0.987031
    2 HYDROGEN      0.930217    0.069783         0.987031    0.012969
    3 HYDROGEN      0.930217                     0.987031
    3 HYDROGEN      0.930217    0.069783         0.987031    0.012969

          ---------------------
          ELECTROSTATIC MOMENTS
          ---------------------

 POINT   1           X           Y           Z (BOHR)    CHARGE
                -0.000000    0.000000    0.124046       -0.00 (A.U.)
         DX          DY          DZ         /D/  (DEBYE)
     0.000000   -0.000000   -0.059431    0.059431
 ...... END OF PROPERTY EVALUATION ......
 CPU     0: STEP CPU TIME=     0.00 TOTAL CPU TIME=          0.7 (      0.0 MIN)
 TOTAL WALL CLOCK TIME=          1.5 SECONDS, CPU UTILIZATION IS    46.60%
               580000  WORDS OF DYNAMIC MEMORY USED
 EXECUTION OF GAMESS TERMINATED NORMALLY 05:25:02 16-NOV-2020    

          This is a threaded run. In some cases not all
          threaded components in GAMESS will saturate the
          total number of available threads on your system or
          set by OMP_NUM_THREADS

 DDI: 263640 bytes (0.3 MB / 0 MWords) used by master data server.

 ----------------------------------------
 CPU timing information for all processes
 ========================================
 0: 0.426 + 0.307 = 0.733
 ----------------------------------------
 ddikick.x: exited gracefully.
----- accounting info -----
Files used on the master node 56a39d0d66cd were:
-rw-r--r-- 1 gamess gamess     410 Nov 16 05:24 /tmp/water.F05
-rw-r--r-- 1 gamess gamess  180016 Nov 16 05:25 /tmp/water.F08
-rw-r--r-- 1 gamess gamess 1636000 Nov 16 05:25 /tmp/water.F10
-rw-r--r-- 1 gamess gamess   64800 Nov 16 05:25 /tmp/water.F12
Mon Nov 16 05:25:05 UTC 2020
20.4u 11.0s 0:36.12 87.1% 0+0k 8+8io 0pf+0w
